3
 energy: -5.768694907539 gnorm: 0.006990673729 xtb: 6.4.1 (afa7bdf)
o         0.00000000000000    0.00000000000000   -0.38936114592126
h         0.76298445773092    0.00000000000000    0.19468057296063
h        -0.76298445773092    0.00000000000000    0.19468057296063
3
 energy: -5.768745134470 gnorm: 0.003804595392 xtb: 6.4.1 (afa7bdf)
o        -0.00000000073616    0.00000000000000   -0.38544913061613
h         0.76557668367878    0.00000000000000    0.19272456558982
h        -0.76557668294261    0.00000000000000    0.19272456502631
3
 energy: -5.768774796297 gnorm: 0.000274890663 xtb: 6.4.1 (afa7bdf)
o        -0.00000000036804    0.00000000000000   -0.37957289107118
h         0.77041219338154    0.00000000000000    0.18978644567645
h        -0.77041219301350    0.00000000000000    0.18978644539473
3
 energy: -5.768774915433 gnorm: 0.000059485034 xtb: 6.4.1 (afa7bdf)
o         0.00000000014954    0.00000000000000   -0.37923110528558
h         0.77099447881913    0.00000000000000    0.18961555258555
h        -0.77099447896867    0.00000000000000    0.18961555270002
