LAMMPS data file. CGCMM style. atom_style full generated by VMD/TopoTools v1.5 on Tue Nov 24 14:46:20 GMT 2015
 1134 atoms 
 1188 bonds
 1944 angles
 2700 dihedrals
 0 impropers
 5 atom types
 6 bond types
 11 angle types
 17 dihedral types
 0 improper types
 -13.456855 13.250045  xlo xhi
 -14.631348 14.174348  ylo yhi
 -12.447601 12.447601  zlo zhi

# Pair Coeffs
#
# 1  CA  
# 2  CB
# 3  CM
# 4  HA
# 5  HM

# Bond Coeffs
#
# 1  CA-CA  1-1
# 2  CA-CB  1-2
# 3  CA-HA  1-4
# 4  CB-CB  2-2
# 5  CB-CM  2-5
# 6  CM-HM  3-5

# Angle Coeffs
#
# 1  CA-CA-CA  1-1-1
# 2  CA-CA-CB  1-1-2
# 3  CA-CA-HA  1-1-4
# 4  CA-CB-CA  1-2-1
# 5  CA-CB-CB  1-2-2
# 6  CA-CB-CM  1-2-3
# 7  CB-CA-HA  2-1-4
# 8  CB-CB-CB  2-2-2
# 9  CB-CB-CM  2-2-3
# 10  CB-CM-HM 2-3-5
# 11  HM-CM-HM 5-3-5

# Dihedral Coeffs
#
# 1  CA-CA-CA-CA  1-1-1-1
# 2  CA-CA-CA-CB  1-1-1-2
# 3  CA-CA-CA-HA  1-1-1-4
# 4  CA-CA-CB-CA  1-1-2-1
# 5  CA-CA-CB-CB  1-1-2-2
# 6  CA-CA-CB-CM  1-1-2-3
# 7  CA-CB-CB-CA  1-2-2-1
# 8  CA-CB-CB-CB  1-2-2-2
# 9  CA-CB-CB-CM  1-2-2-3
# 10  CA-CB-CM-HM 1-2-3-5
# 11  CB-CA-CA-HA 2-1-1-4
# 12  CB-CB-CB-CM 2-2-2-3
# 13  CB-CB-CM-HM 2-2-3-5
# 14  HA-CA-CA-HA 4-1-1-4
# 15  HA-CA-CB-CA 4-1-2-1
# 16  HA-CA-CB-CB 4-1-2-2
# 17  HA-CA-CB-CM 4-1-3-3

 Masses

 1 12.011000 # CA
 2 12.011000 # CB
 3 12.011000 # CM
 4 1.008000 # HA
 5 1.008000 # HM

 Atoms

1 1 2 0.000000 -9.156204 -9.821899 -10.373000 # CB NAP
2 1 2 0.000000 -7.723205 -9.802899 -10.373000 # CB NAP
3 1 2 0.000000 -9.872205 -8.584899 -10.373000 # CB NAP
4 1 1 -0.115000 -9.781204 -11.095900 -10.373000 # CA NAP
5 1 1 -0.115000 -7.032205 -8.573899 -10.373000 # CA NAP
6 1 1 -0.115000 -9.138205 -7.373899 -10.373000 # CA NAP
7 1 1 -0.115000 -6.983205 -11.008899 -10.373000 # CA NAP
8 1 1 -0.115000 -7.736205 -7.361899 -10.373000 # CA NAP
9 1 3 -0.065000 -11.352205 -8.417899 -10.373000 # CM NAP
10 1 1 -0.115000 -9.042205 -12.291899 -10.373000 # CA NAP
11 1 1 -0.115000 -7.641205 -12.247899 -10.373000 # CA NAP
12 1 4 0.115000 -10.794205 -11.206900 -10.373000 # HA NAP
13 1 4 0.115000 -6.008204 -8.535899 -10.373000 # HA NAP
14 1 4 0.115000 -9.613205 -6.465899 -10.373000 # HA NAP
15 1 4 0.115000 -5.959205 -11.006899 -10.373000 # HA NAP
16 1 4 0.115000 -7.229205 -6.473899 -10.373000 # HA NAP
17 1 5 0.021667 -11.664205 -7.859899 -9.487000 # HM NAP
18 1 5 0.021667 -11.664205 -7.859899 -11.259000 # HM NAP
19 1 5 0.021667 -11.933205 -9.335899 -10.373000 # HM NAP
20 1 4 0.115000 -9.522204 -13.194899 -10.373000 # HA NAP
21 1 4 0.115000 -7.102205 -13.117899 -10.373000 # HA NAP
22 1 2 0.000000 -9.156204 -9.821899 -6.223800 # CB NAP
23 1 2 0.000000 -7.723205 -9.802899 -6.223800 # CB NAP
24 1 2 0.000000 -9.872205 -8.584899 -6.223800 # CB NAP
25 1 1 -0.115000 -9.781204 -11.095900 -6.223800 # CA NAP
26 1 1 -0.115000 -7.032205 -8.573899 -6.223800 # CA NAP
27 1 1 -0.115000 -9.138205 -7.373899 -6.223800 # CA NAP
28 1 1 -0.115000 -6.983205 -11.008899 -6.223800 # CA NAP
29 1 1 -0.115000 -7.736205 -7.361899 -6.223800 # CA NAP
30 1 3 -0.065000 -11.352205 -8.417899 -6.223800 # CM NAP
31 1 1 -0.115000 -9.042205 -12.291899 -6.223800 # CA NAP
32 1 1 -0.115000 -7.641205 -12.247899 -6.223800 # CA NAP
33 1 4 0.115000 -10.794205 -11.206900 -6.223800 # HA NAP
34 1 4 0.115000 -6.008204 -8.535899 -6.223800 # HA NAP
35 1 4 0.115000 -9.613205 -6.465899 -6.223800 # HA NAP
36 1 4 0.115000 -5.959205 -11.006899 -6.223800 # HA NAP
37 1 4 0.115000 -7.229205 -6.473899 -6.223800 # HA NAP
38 1 5 0.021667 -11.664205 -7.859899 -5.337800 # HM NAP
39 1 5 0.021667 -11.664205 -7.859899 -7.109800 # HM NAP
40 1 5 0.021667 -11.933205 -9.335899 -6.223800 # HM NAP
41 1 4 0.115000 -9.522204 -13.194899 -6.223800 # HA NAP
42 1 4 0.115000 -7.102205 -13.117899 -6.223800 # HA NAP
43 1 2 0.000000 -9.156204 -9.821899 -2.074600 # CB NAP
44 1 2 0.000000 -7.723205 -9.802899 -2.074600 # CB NAP
45 1 2 0.000000 -9.872205 -8.584899 -2.074600 # CB NAP
46 1 1 -0.115000 -9.781204 -11.095900 -2.074600 # CA NAP
47 1 1 -0.115000 -7.032205 -8.573899 -2.074600 # CA NAP
48 1 1 -0.115000 -9.138205 -7.373899 -2.074600 # CA NAP
49 1 1 -0.115000 -6.983205 -11.008899 -2.074600 # CA NAP
50 1 1 -0.115000 -7.736205 -7.361899 -2.074600 # CA NAP
51 1 3 -0.065000 -11.352205 -8.417899 -2.074600 # CM NAP
52 1 1 -0.115000 -9.042205 -12.291899 -2.074600 # CA NAP
53 1 1 -0.115000 -7.641205 -12.247899 -2.074600 # CA NAP
54 1 4 0.115000 -10.794205 -11.206900 -2.074600 # HA NAP
55 1 4 0.115000 -6.008204 -8.535899 -2.074600 # HA NAP
56 1 4 0.115000 -9.613205 -6.465899 -2.074600 # HA NAP
57 1 4 0.115000 -5.959205 -11.006899 -2.074600 # HA NAP
58 1 4 0.115000 -7.229205 -6.473899 -2.074600 # HA NAP
59 1 5 0.021667 -11.664205 -7.859899 -1.188600 # HM NAP
60 1 5 0.021667 -11.664205 -7.859899 -2.960600 # HM NAP
61 1 5 0.021667 -11.933205 -9.335899 -2.074600 # HM NAP
62 1 4 0.115000 -9.522204 -13.194899 -2.074600 # HA NAP
63 1 4 0.115000 -7.102205 -13.117899 -2.074600 # HA NAP
64 1 2 0.000000 -9.156204 -9.821899 2.074600 # CB NAP
65 1 2 0.000000 -7.723205 -9.802899 2.074600 # CB NAP
66 1 2 0.000000 -9.872205 -8.584899 2.074600 # CB NAP
67 1 1 -0.115000 -9.781204 -11.095900 2.074600 # CA NAP
68 1 1 -0.115000 -7.032205 -8.573899 2.074600 # CA NAP
69 1 1 -0.115000 -9.138205 -7.373899 2.074600 # CA NAP
70 1 1 -0.115000 -6.983205 -11.008899 2.074600 # CA NAP
71 1 1 -0.115000 -7.736205 -7.361899 2.074600 # CA NAP
72 1 3 -0.065000 -11.352205 -8.417899 2.074600 # CM NAP
73 1 1 -0.115000 -9.042205 -12.291899 2.074600 # CA NAP
74 1 1 -0.115000 -7.641205 -12.247899 2.074600 # CA NAP
75 1 4 0.115000 -10.794205 -11.206900 2.074600 # HA NAP
76 1 4 0.115000 -6.008204 -8.535899 2.074600 # HA NAP
77 1 4 0.115000 -9.613205 -6.465899 2.074600 # HA NAP
78 1 4 0.115000 -5.959205 -11.006899 2.074600 # HA NAP
79 1 4 0.115000 -7.229205 -6.473899 2.074600 # HA NAP
80 1 5 0.021667 -11.664205 -7.859899 2.960600 # HM NAP
81 1 5 0.021667 -11.664205 -7.859899 1.188600 # HM NAP
82 1 5 0.021667 -11.933205 -9.335899 2.074600 # HM NAP
83 1 4 0.115000 -9.522204 -13.194899 2.074600 # HA NAP
84 1 4 0.115000 -7.102205 -13.117899 2.074600 # HA NAP
85 1 2 0.000000 -9.156204 -9.821899 6.223800 # CB NAP
86 1 2 0.000000 -7.723205 -9.802899 6.223800 # CB NAP
87 1 2 0.000000 -9.872205 -8.584899 6.223800 # CB NAP
88 1 1 -0.115000 -9.781204 -11.095900 6.223800 # CA NAP
89 1 1 -0.115000 -7.032205 -8.573899 6.223800 # CA NAP
90 1 1 -0.115000 -9.138205 -7.373899 6.223800 # CA NAP
91 1 1 -0.115000 -6.983205 -11.008899 6.223800 # CA NAP
92 1 1 -0.115000 -7.736205 -7.361899 6.223800 # CA NAP
93 1 3 -0.065000 -11.352205 -8.417899 6.223800 # CM NAP
94 1 1 -0.115000 -9.042205 -12.291899 6.223800 # CA NAP
95 1 1 -0.115000 -7.641205 -12.247899 6.223800 # CA NAP
96 1 4 0.115000 -10.794205 -11.206900 6.223800 # HA NAP
97 1 4 0.115000 -6.008204 -8.535899 6.223800 # HA NAP
98 1 4 0.115000 -9.613205 -6.465899 6.223800 # HA NAP
99 1 4 0.115000 -5.959205 -11.006899 6.223800 # HA NAP
100 1 4 0.115000 -7.229205 -6.473899 6.223800 # HA NAP
101 1 5 0.021667 -11.664205 -7.859899 7.109800 # HM NAP
102 1 5 0.021667 -11.664205 -7.859899 5.337800 # HM NAP
103 1 5 0.021667 -11.933205 -9.335899 6.223800 # HM NAP
104 1 4 0.115000 -9.522204 -13.194899 6.223800 # HA NAP
105 1 4 0.115000 -7.102205 -13.117899 6.223800 # HA NAP
106 1 2 0.000000 -9.156204 -9.821899 10.373000 # CB NAP
107 1 2 0.000000 -7.723205 -9.802899 10.373000 # CB NAP
108 1 2 0.000000 -9.872205 -8.584899 10.373000 # CB NAP
109 1 1 -0.115000 -9.781204 -11.095900 10.373000 # CA NAP
110 1 1 -0.115000 -7.032205 -8.573899 10.373000 # CA NAP
111 1 1 -0.115000 -9.138205 -7.373899 10.373000 # CA NAP
112 1 1 -0.115000 -6.983205 -11.008899 10.373000 # CA NAP
113 1 1 -0.115000 -7.736205 -7.361899 10.373000 # CA NAP
114 1 3 -0.065000 -11.352205 -8.417899 10.373000 # CM NAP
115 1 1 -0.115000 -9.042205 -12.291899 10.373000 # CA NAP
116 1 1 -0.115000 -7.641205 -12.247899 10.373000 # CA NAP
117 1 4 0.115000 -10.794205 -11.206900 10.373000 # HA NAP
118 1 4 0.115000 -6.008204 -8.535899 10.373000 # HA NAP
119 1 4 0.115000 -9.613205 -6.465899 10.373000 # HA NAP
120 1 4 0.115000 -5.959205 -11.006899 10.373000 # HA NAP
121 1 4 0.115000 -7.229205 -6.473899 10.373000 # HA NAP
122 1 5 0.021667 -11.664205 -7.859899 11.259000 # HM NAP
123 1 5 0.021667 -11.664205 -7.859899 9.487000 # HM NAP
124 1 5 0.021667 -11.933205 -9.335899 10.373000 # HM NAP
125 1 4 0.115000 -9.522204 -13.194899 10.373000 # HA NAP
126 1 4 0.115000 -7.102205 -13.117899 10.373000 # HA NAP
127 1 2 0.000000 -9.156204 -0.220000 -10.373000 # CB NAP
128 1 2 0.000000 -7.723205 -0.201000 -10.373000 # CB NAP
129 1 2 0.000000 -9.872205 1.017000 -10.373000 # CB NAP
130 1 1 -0.115000 -9.781204 -1.494000 -10.373000 # CA NAP
131 1 1 -0.115000 -7.032205 1.028000 -10.373000 # CA NAP
132 1 1 -0.115000 -9.138205 2.228000 -10.373000 # CA NAP
133 1 1 -0.115000 -6.983205 -1.407000 -10.373000 # CA NAP
134 1 1 -0.115000 -7.736205 2.240000 -10.373000 # CA NAP
135 1 3 -0.065000 -11.352205 1.184000 -10.373000 # CM NAP
136 1 1 -0.115000 -9.042205 -2.690000 -10.373000 # CA NAP
137 1 1 -0.115000 -7.641205 -2.646000 -10.373000 # CA NAP
138 1 4 0.115000 -10.794205 -1.605000 -10.373000 # HA NAP
139 1 4 0.115000 -6.008204 1.066000 -10.373000 # HA NAP
140 1 4 0.115000 -9.613205 3.136000 -10.373000 # HA NAP
141 1 4 0.115000 -5.959205 -1.405000 -10.373000 # HA NAP
142 1 4 0.115000 -7.229205 3.128000 -10.373000 # HA NAP
143 1 5 0.021667 -11.664205 1.742000 -9.487000 # HM NAP
144 1 5 0.021667 -11.664205 1.742000 -11.259000 # HM NAP
145 1 5 0.021667 -11.933205 0.266000 -10.373000 # HM NAP
146 1 4 0.115000 -9.522204 -3.593000 -10.373000 # HA NAP
147 1 4 0.115000 -7.102205 -3.516000 -10.373000 # HA NAP
148 1 2 0.000000 -9.156204 -0.220000 -6.223800 # CB NAP
149 1 2 0.000000 -7.723205 -0.201000 -6.223800 # CB NAP
150 1 2 0.000000 -9.872205 1.017000 -6.223800 # CB NAP
151 1 1 -0.115000 -9.781204 -1.494000 -6.223800 # CA NAP
152 1 1 -0.115000 -7.032205 1.028000 -6.223800 # CA NAP
153 1 1 -0.115000 -9.138205 2.228000 -6.223800 # CA NAP
154 1 1 -0.115000 -6.983205 -1.407000 -6.223800 # CA NAP
155 1 1 -0.115000 -7.736205 2.240000 -6.223800 # CA NAP
156 1 3 -0.065000 -11.352205 1.184000 -6.223800 # CM NAP
157 1 1 -0.115000 -9.042205 -2.690000 -6.223800 # CA NAP
158 1 1 -0.115000 -7.641205 -2.646000 -6.223800 # CA NAP
159 1 4 0.115000 -10.794205 -1.605000 -6.223800 # HA NAP
160 1 4 0.115000 -6.008204 1.066000 -6.223800 # HA NAP
161 1 4 0.115000 -9.613205 3.136000 -6.223800 # HA NAP
162 1 4 0.115000 -5.959205 -1.405000 -6.223800 # HA NAP
163 1 4 0.115000 -7.229205 3.128000 -6.223800 # HA NAP
164 1 5 0.021667 -11.664205 1.742000 -5.337800 # HM NAP
165 1 5 0.021667 -11.664205 1.742000 -7.109800 # HM NAP
166 1 5 0.021667 -11.933205 0.266000 -6.223800 # HM NAP
167 1 4 0.115000 -9.522204 -3.593000 -6.223800 # HA NAP
168 1 4 0.115000 -7.102205 -3.516000 -6.223800 # HA NAP
169 1 2 0.000000 -9.156204 -0.220000 -2.074600 # CB NAP
170 1 2 0.000000 -7.723205 -0.201000 -2.074600 # CB NAP
171 1 2 0.000000 -9.872205 1.017000 -2.074600 # CB NAP
172 1 1 -0.115000 -9.781204 -1.494000 -2.074600 # CA NAP
173 1 1 -0.115000 -7.032205 1.028000 -2.074600 # CA NAP
174 1 1 -0.115000 -9.138205 2.228000 -2.074600 # CA NAP
175 1 1 -0.115000 -6.983205 -1.407000 -2.074600 # CA NAP
176 1 1 -0.115000 -7.736205 2.240000 -2.074600 # CA NAP
177 1 3 -0.065000 -11.352205 1.184000 -2.074600 # CM NAP
178 1 1 -0.115000 -9.042205 -2.690000 -2.074600 # CA NAP
179 1 1 -0.115000 -7.641205 -2.646000 -2.074600 # CA NAP
180 1 4 0.115000 -10.794205 -1.605000 -2.074600 # HA NAP
181 1 4 0.115000 -6.008204 1.066000 -2.074600 # HA NAP
182 1 4 0.115000 -9.613205 3.136000 -2.074600 # HA NAP
183 1 4 0.115000 -5.959205 -1.405000 -2.074600 # HA NAP
184 1 4 0.115000 -7.229205 3.128000 -2.074600 # HA NAP
185 1 5 0.021667 -11.664205 1.742000 -1.188600 # HM NAP
186 1 5 0.021667 -11.664205 1.742000 -2.960600 # HM NAP
187 1 5 0.021667 -11.933205 0.266000 -2.074600 # HM NAP
188 1 4 0.115000 -9.522204 -3.593000 -2.074600 # HA NAP
189 1 4 0.115000 -7.102205 -3.516000 -2.074600 # HA NAP
190 1 2 0.000000 -9.156204 -0.220000 2.074600 # CB NAP
191 1 2 0.000000 -7.723205 -0.201000 2.074600 # CB NAP
192 1 2 0.000000 -9.872205 1.017000 2.074600 # CB NAP
193 1 1 -0.115000 -9.781204 -1.494000 2.074600 # CA NAP
194 1 1 -0.115000 -7.032205 1.028000 2.074600 # CA NAP
195 1 1 -0.115000 -9.138205 2.228000 2.074600 # CA NAP
196 1 1 -0.115000 -6.983205 -1.407000 2.074600 # CA NAP
197 1 1 -0.115000 -7.736205 2.240000 2.074600 # CA NAP
198 1 3 -0.065000 -11.352205 1.184000 2.074600 # CM NAP
199 1 1 -0.115000 -9.042205 -2.690000 2.074600 # CA NAP
200 1 1 -0.115000 -7.641205 -2.646000 2.074600 # CA NAP
201 1 4 0.115000 -10.794205 -1.605000 2.074600 # HA NAP
202 1 4 0.115000 -6.008204 1.066000 2.074600 # HA NAP
203 1 4 0.115000 -9.613205 3.136000 2.074600 # HA NAP
204 1 4 0.115000 -5.959205 -1.405000 2.074600 # HA NAP
205 1 4 0.115000 -7.229205 3.128000 2.074600 # HA NAP
206 1 5 0.021667 -11.664205 1.742000 2.960600 # HM NAP
207 1 5 0.021667 -11.664205 1.742000 1.188600 # HM NAP
208 1 5 0.021667 -11.933205 0.266000 2.074600 # HM NAP
209 1 4 0.115000 -9.522204 -3.593000 2.074600 # HA NAP
210 1 4 0.115000 -7.102205 -3.516000 2.074600 # HA NAP
211 1 2 0.000000 -9.156204 -0.220000 6.223800 # CB NAP
212 1 2 0.000000 -7.723205 -0.201000 6.223800 # CB NAP
213 1 2 0.000000 -9.872205 1.017000 6.223800 # CB NAP
214 1 1 -0.115000 -9.781204 -1.494000 6.223800 # CA NAP
215 1 1 -0.115000 -7.032205 1.028000 6.223800 # CA NAP
216 1 1 -0.115000 -9.138205 2.228000 6.223800 # CA NAP
217 1 1 -0.115000 -6.983205 -1.407000 6.223800 # CA NAP
218 1 1 -0.115000 -7.736205 2.240000 6.223800 # CA NAP
219 1 3 -0.065000 -11.352205 1.184000 6.223800 # CM NAP
220 1 1 -0.115000 -9.042205 -2.690000 6.223800 # CA NAP
221 1 1 -0.115000 -7.641205 -2.646000 6.223800 # CA NAP
222 1 4 0.115000 -10.794205 -1.605000 6.223800 # HA NAP
223 1 4 0.115000 -6.008204 1.066000 6.223800 # HA NAP
224 1 4 0.115000 -9.613205 3.136000 6.223800 # HA NAP
225 1 4 0.115000 -5.959205 -1.405000 6.223800 # HA NAP
226 1 4 0.115000 -7.229205 3.128000 6.223800 # HA NAP
227 1 5 0.021667 -11.664205 1.742000 7.109800 # HM NAP
228 1 5 0.021667 -11.664205 1.742000 5.337800 # HM NAP
229 1 5 0.021667 -11.933205 0.266000 6.223800 # HM NAP
230 1 4 0.115000 -9.522204 -3.593000 6.223800 # HA NAP
231 1 4 0.115000 -7.102205 -3.516000 6.223800 # HA NAP
232 1 2 0.000000 -9.156204 -0.220000 10.373000 # CB NAP
233 1 2 0.000000 -7.723205 -0.201000 10.373000 # CB NAP
234 1 2 0.000000 -9.872205 1.017000 10.373000 # CB NAP
235 1 1 -0.115000 -9.781204 -1.494000 10.373000 # CA NAP
236 1 1 -0.115000 -7.032205 1.028000 10.373000 # CA NAP
237 1 1 -0.115000 -9.138205 2.228000 10.373000 # CA NAP
238 1 1 -0.115000 -6.983205 -1.407000 10.373000 # CA NAP
239 1 1 -0.115000 -7.736205 2.240000 10.373000 # CA NAP
240 1 3 -0.065000 -11.352205 1.184000 10.373000 # CM NAP
241 1 1 -0.115000 -9.042205 -2.690000 10.373000 # CA NAP
242 1 1 -0.115000 -7.641205 -2.646000 10.373000 # CA NAP
243 1 4 0.115000 -10.794205 -1.605000 10.373000 # HA NAP
244 1 4 0.115000 -6.008204 1.066000 10.373000 # HA NAP
245 1 4 0.115000 -9.613205 3.136000 10.373000 # HA NAP
246 1 4 0.115000 -5.959205 -1.405000 10.373000 # HA NAP
247 1 4 0.115000 -7.229205 3.128000 10.373000 # HA NAP
248 1 5 0.021667 -11.664205 1.742000 11.259000 # HM NAP
249 1 5 0.021667 -11.664205 1.742000 9.487000 # HM NAP
250 1 5 0.021667 -11.933205 0.266000 10.373000 # HM NAP
251 1 4 0.115000 -9.522204 -3.593000 10.373000 # HA NAP
252 1 4 0.115000 -7.102205 -3.516000 10.373000 # HA NAP
253 1 2 0.000000 -9.156204 9.381899 -10.373000 # CB NAP
254 1 2 0.000000 -7.723205 9.400899 -10.373000 # CB NAP
255 1 2 0.000000 -9.872205 10.618899 -10.373000 # CB NAP
256 1 1 -0.115000 -9.781204 8.107899 -10.373000 # CA NAP
257 1 1 -0.115000 -7.032205 10.629899 -10.373000 # CA NAP
258 1 1 -0.115000 -9.138205 11.829899 -10.373000 # CA NAP
259 1 1 -0.115000 -6.983205 8.194900 -10.373000 # CA NAP
260 1 1 -0.115000 -7.736205 11.841899 -10.373000 # CA NAP
261 1 3 -0.065000 -11.352205 10.785899 -10.373000 # CM NAP
262 1 1 -0.115000 -9.042205 6.911899 -10.373000 # CA NAP
263 1 1 -0.115000 -7.641205 6.955899 -10.373000 # CA NAP
264 1 4 0.115000 -10.794205 7.996899 -10.373000 # HA NAP
265 1 4 0.115000 -6.008204 10.667899 -10.373000 # HA NAP
266 1 4 0.115000 -9.613205 12.737899 -10.373000 # HA NAP
267 1 4 0.115000 -5.959205 8.196899 -10.373000 # HA NAP
268 1 4 0.115000 -7.229205 12.729899 -10.373000 # HA NAP
269 1 5 0.021667 -11.664205 11.343899 -9.487000 # HM NAP
270 1 5 0.021667 -11.664205 11.343899 -11.259000 # HM NAP
271 1 5 0.021667 -11.933205 9.867899 -10.373000 # HM NAP
272 1 4 0.115000 -9.522204 6.008899 -10.373000 # HA NAP
273 1 4 0.115000 -7.102205 6.085899 -10.373000 # HA NAP
274 1 2 0.000000 -9.156204 9.381899 -6.223800 # CB NAP
275 1 2 0.000000 -7.723205 9.400899 -6.223800 # CB NAP
276 1 2 0.000000 -9.872205 10.618899 -6.223800 # CB NAP
277 1 1 -0.115000 -9.781204 8.107899 -6.223800 # CA NAP
278 1 1 -0.115000 -7.032205 10.629899 -6.223800 # CA NAP
279 1 1 -0.115000 -9.138205 11.829899 -6.223800 # CA NAP
280 1 1 -0.115000 -6.983205 8.194900 -6.223800 # CA NAP
281 1 1 -0.115000 -7.736205 11.841899 -6.223800 # CA NAP
282 1 3 -0.065000 -11.352205 10.785899 -6.223800 # CM NAP
283 1 1 -0.115000 -9.042205 6.911899 -6.223800 # CA NAP
284 1 1 -0.115000 -7.641205 6.955899 -6.223800 # CA NAP
285 1 4 0.115000 -10.794205 7.996899 -6.223800 # HA NAP
286 1 4 0.115000 -6.008204 10.667899 -6.223800 # HA NAP
287 1 4 0.115000 -9.613205 12.737899 -6.223800 # HA NAP
288 1 4 0.115000 -5.959205 8.196899 -6.223800 # HA NAP
289 1 4 0.115000 -7.229205 12.729899 -6.223800 # HA NAP
290 1 5 0.021667 -11.664205 11.343899 -5.337800 # HM NAP
291 1 5 0.021667 -11.664205 11.343899 -7.109800 # HM NAP
292 1 5 0.021667 -11.933205 9.867899 -6.223800 # HM NAP
293 1 4 0.115000 -9.522204 6.008899 -6.223800 # HA NAP
294 1 4 0.115000 -7.102205 6.085899 -6.223800 # HA NAP
295 1 2 0.000000 -9.156204 9.381899 -2.074600 # CB NAP
296 1 2 0.000000 -7.723205 9.400899 -2.074600 # CB NAP
297 1 2 0.000000 -9.872205 10.618899 -2.074600 # CB NAP
298 1 1 -0.115000 -9.781204 8.107899 -2.074600 # CA NAP
299 1 1 -0.115000 -7.032205 10.629899 -2.074600 # CA NAP
300 1 1 -0.115000 -9.138205 11.829899 -2.074600 # CA NAP
301 1 1 -0.115000 -6.983205 8.194900 -2.074600 # CA NAP
302 1 1 -0.115000 -7.736205 11.841899 -2.074600 # CA NAP
303 1 3 -0.065000 -11.352205 10.785899 -2.074600 # CM NAP
304 1 1 -0.115000 -9.042205 6.911899 -2.074600 # CA NAP
305 1 1 -0.115000 -7.641205 6.955899 -2.074600 # CA NAP
306 1 4 0.115000 -10.794205 7.996899 -2.074600 # HA NAP
307 1 4 0.115000 -6.008204 10.667899 -2.074600 # HA NAP
308 1 4 0.115000 -9.613205 12.737899 -2.074600 # HA NAP
309 1 4 0.115000 -5.959205 8.196899 -2.074600 # HA NAP
310 1 4 0.115000 -7.229205 12.729899 -2.074600 # HA NAP
311 1 5 0.021667 -11.664205 11.343899 -1.188600 # HM NAP
312 1 5 0.021667 -11.664205 11.343899 -2.960600 # HM NAP
313 1 5 0.021667 -11.933205 9.867899 -2.074600 # HM NAP
314 1 4 0.115000 -9.522204 6.008899 -2.074600 # HA NAP
315 1 4 0.115000 -7.102205 6.085899 -2.074600 # HA NAP
316 1 2 0.000000 -9.156204 9.381899 2.074600 # CB NAP
317 1 2 0.000000 -7.723205 9.400899 2.074600 # CB NAP
318 1 2 0.000000 -9.872205 10.618899 2.074600 # CB NAP
319 1 1 -0.115000 -9.781204 8.107899 2.074600 # CA NAP
320 1 1 -0.115000 -7.032205 10.629899 2.074600 # CA NAP
321 1 1 -0.115000 -9.138205 11.829899 2.074600 # CA NAP
322 1 1 -0.115000 -6.983205 8.194900 2.074600 # CA NAP
323 1 1 -0.115000 -7.736205 11.841899 2.074600 # CA NAP
324 1 3 -0.065000 -11.352205 10.785899 2.074600 # CM NAP
325 1 1 -0.115000 -9.042205 6.911899 2.074600 # CA NAP
326 1 1 -0.115000 -7.641205 6.955899 2.074600 # CA NAP
327 1 4 0.115000 -10.794205 7.996899 2.074600 # HA NAP
328 1 4 0.115000 -6.008204 10.667899 2.074600 # HA NAP
329 1 4 0.115000 -9.613205 12.737899 2.074600 # HA NAP
330 1 4 0.115000 -5.959205 8.196899 2.074600 # HA NAP
331 1 4 0.115000 -7.229205 12.729899 2.074600 # HA NAP
332 1 5 0.021667 -11.664205 11.343899 2.960600 # HM NAP
333 1 5 0.021667 -11.664205 11.343899 1.188600 # HM NAP
334 1 5 0.021667 -11.933205 9.867899 2.074600 # HM NAP
335 1 4 0.115000 -9.522204 6.008899 2.074600 # HA NAP
336 1 4 0.115000 -7.102205 6.085899 2.074600 # HA NAP
337 1 2 0.000000 -9.156204 9.381899 6.223800 # CB NAP
338 1 2 0.000000 -7.723205 9.400899 6.223800 # CB NAP
339 1 2 0.000000 -9.872205 10.618899 6.223800 # CB NAP
340 1 1 -0.115000 -9.781204 8.107899 6.223800 # CA NAP
341 1 1 -0.115000 -7.032205 10.629899 6.223800 # CA NAP
342 1 1 -0.115000 -9.138205 11.829899 6.223800 # CA NAP
343 1 1 -0.115000 -6.983205 8.194900 6.223800 # CA NAP
344 1 1 -0.115000 -7.736205 11.841899 6.223800 # CA NAP
345 1 3 -0.065000 -11.352205 10.785899 6.223800 # CM NAP
346 1 1 -0.115000 -9.042205 6.911899 6.223800 # CA NAP
347 1 1 -0.115000 -7.641205 6.955899 6.223800 # CA NAP
348 1 4 0.115000 -10.794205 7.996899 6.223800 # HA NAP
349 1 4 0.115000 -6.008204 10.667899 6.223800 # HA NAP
350 1 4 0.115000 -9.613205 12.737899 6.223800 # HA NAP
351 1 4 0.115000 -5.959205 8.196899 6.223800 # HA NAP
352 1 4 0.115000 -7.229205 12.729899 6.223800 # HA NAP
353 1 5 0.021667 -11.664205 11.343899 7.109800 # HM NAP
354 1 5 0.021667 -11.664205 11.343899 5.337800 # HM NAP
355 1 5 0.021667 -11.933205 9.867899 6.223800 # HM NAP
356 1 4 0.115000 -9.522204 6.008899 6.223800 # HA NAP
357 1 4 0.115000 -7.102205 6.085899 6.223800 # HA NAP
358 1 2 0.000000 -9.156204 9.381899 10.373000 # CB NAP
359 1 2 0.000000 -7.723205 9.400899 10.373000 # CB NAP
360 1 2 0.000000 -9.872205 10.618899 10.373000 # CB NAP
361 1 1 -0.115000 -9.781204 8.107899 10.373000 # CA NAP
362 1 1 -0.115000 -7.032205 10.629899 10.373000 # CA NAP
363 1 1 -0.115000 -9.138205 11.829899 10.373000 # CA NAP
364 1 1 -0.115000 -6.983205 8.194900 10.373000 # CA NAP
365 1 1 -0.115000 -7.736205 11.841899 10.373000 # CA NAP
366 1 3 -0.065000 -11.352205 10.785899 10.373000 # CM NAP
367 1 1 -0.115000 -9.042205 6.911899 10.373000 # CA NAP
368 1 1 -0.115000 -7.641205 6.955899 10.373000 # CA NAP
369 1 4 0.115000 -10.794205 7.996899 10.373000 # HA NAP
370 1 4 0.115000 -6.008204 10.667899 10.373000 # HA NAP
371 1 4 0.115000 -9.613205 12.737899 10.373000 # HA NAP
372 1 4 0.115000 -5.959205 8.196899 10.373000 # HA NAP
373 1 4 0.115000 -7.229205 12.729899 10.373000 # HA NAP
374 1 5 0.021667 -11.664205 11.343899 11.259000 # HM NAP
375 1 5 0.021667 -11.664205 11.343899 9.487000 # HM NAP
376 1 5 0.021667 -11.933205 9.867899 10.373000 # HM NAP
377 1 4 0.115000 -9.522204 6.008899 10.373000 # HA NAP
378 1 4 0.115000 -7.102205 6.085899 10.373000 # HA NAP
379 1 2 0.000000 -0.253905 -9.821899 -10.373000 # CB NAP
380 1 2 0.000000 1.179095 -9.802899 -10.373000 # CB NAP
381 1 2 0.000000 -0.969905 -8.584899 -10.373000 # CB NAP
382 1 1 -0.115000 -0.878905 -11.095900 -10.373000 # CA NAP
383 1 1 -0.115000 1.870095 -8.573899 -10.373000 # CA NAP
384 1 1 -0.115000 -0.235905 -7.373899 -10.373000 # CA NAP
385 1 1 -0.115000 1.919095 -11.008899 -10.373000 # CA NAP
386 1 1 -0.115000 1.166095 -7.361899 -10.373000 # CA NAP
387 1 3 -0.065000 -2.449905 -8.417899 -10.373000 # CM NAP
388 1 1 -0.115000 -0.139905 -12.291899 -10.373000 # CA NAP
389 1 1 -0.115000 1.261095 -12.247899 -10.373000 # CA NAP
390 1 4 0.115000 -1.891905 -11.206900 -10.373000 # HA NAP
391 1 4 0.115000 2.894095 -8.535899 -10.373000 # HA NAP
392 1 4 0.115000 -0.710905 -6.465899 -10.373000 # HA NAP
393 1 4 0.115000 2.943095 -11.006899 -10.373000 # HA NAP
394 1 4 0.115000 1.673095 -6.473899 -10.373000 # HA NAP
395 1 5 0.021667 -2.761905 -7.859899 -9.487000 # HM NAP
396 1 5 0.021667 -2.761905 -7.859899 -11.259000 # HM NAP
397 1 5 0.021667 -3.030905 -9.335899 -10.373000 # HM NAP
398 1 4 0.115000 -0.619905 -13.194899 -10.373000 # HA NAP
399 1 4 0.115000 1.800095 -13.117899 -10.373000 # HA NAP
400 1 2 0.000000 -0.253905 -9.821899 -6.223800 # CB NAP
401 1 2 0.000000 1.179095 -9.802899 -6.223800 # CB NAP
402 1 2 0.000000 -0.969905 -8.584899 -6.223800 # CB NAP
403 1 1 -0.115000 -0.878905 -11.095900 -6.223800 # CA NAP
404 1 1 -0.115000 1.870095 -8.573899 -6.223800 # CA NAP
405 1 1 -0.115000 -0.235905 -7.373899 -6.223800 # CA NAP
406 1 1 -0.115000 1.919095 -11.008899 -6.223800 # CA NAP
407 1 1 -0.115000 1.166095 -7.361899 -6.223800 # CA NAP
408 1 3 -0.065000 -2.449905 -8.417899 -6.223800 # CM NAP
409 1 1 -0.115000 -0.139905 -12.291899 -6.223800 # CA NAP
410 1 1 -0.115000 1.261095 -12.247899 -6.223800 # CA NAP
411 1 4 0.115000 -1.891905 -11.206900 -6.223800 # HA NAP
412 1 4 0.115000 2.894095 -8.535899 -6.223800 # HA NAP
413 1 4 0.115000 -0.710905 -6.465899 -6.223800 # HA NAP
414 1 4 0.115000 2.943095 -11.006899 -6.223800 # HA NAP
415 1 4 0.115000 1.673095 -6.473899 -6.223800 # HA NAP
416 1 5 0.021667 -2.761905 -7.859899 -5.337800 # HM NAP
417 1 5 0.021667 -2.761905 -7.859899 -7.109800 # HM NAP
418 1 5 0.021667 -3.030905 -9.335899 -6.223800 # HM NAP
419 1 4 0.115000 -0.619905 -13.194899 -6.223800 # HA NAP
420 1 4 0.115000 1.800095 -13.117899 -6.223800 # HA NAP
421 1 2 0.000000 -0.253905 -9.821899 -2.074600 # CB NAP
422 1 2 0.000000 1.179095 -9.802899 -2.074600 # CB NAP
423 1 2 0.000000 -0.969905 -8.584899 -2.074600 # CB NAP
424 1 1 -0.115000 -0.878905 -11.095900 -2.074600 # CA NAP
425 1 1 -0.115000 1.870095 -8.573899 -2.074600 # CA NAP
426 1 1 -0.115000 -0.235905 -7.373899 -2.074600 # CA NAP
427 1 1 -0.115000 1.919095 -11.008899 -2.074600 # CA NAP
428 1 1 -0.115000 1.166095 -7.361899 -2.074600 # CA NAP
429 1 3 -0.065000 -2.449905 -8.417899 -2.074600 # CM NAP
430 1 1 -0.115000 -0.139905 -12.291899 -2.074600 # CA NAP
431 1 1 -0.115000 1.261095 -12.247899 -2.074600 # CA NAP
432 1 4 0.115000 -1.891905 -11.206900 -2.074600 # HA NAP
433 1 4 0.115000 2.894095 -8.535899 -2.074600 # HA NAP
434 1 4 0.115000 -0.710905 -6.465899 -2.074600 # HA NAP
435 1 4 0.115000 2.943095 -11.006899 -2.074600 # HA NAP
436 1 4 0.115000 1.673095 -6.473899 -2.074600 # HA NAP
437 1 5 0.021667 -2.761905 -7.859899 -1.188600 # HM NAP
438 1 5 0.021667 -2.761905 -7.859899 -2.960600 # HM NAP
439 1 5 0.021667 -3.030905 -9.335899 -2.074600 # HM NAP
440 1 4 0.115000 -0.619905 -13.194899 -2.074600 # HA NAP
441 1 4 0.115000 1.800095 -13.117899 -2.074600 # HA NAP
442 1 2 0.000000 -0.253905 -9.821899 2.074600 # CB NAP
443 1 2 0.000000 1.179095 -9.802899 2.074600 # CB NAP
444 1 2 0.000000 -0.969905 -8.584899 2.074600 # CB NAP
445 1 1 -0.115000 -0.878905 -11.095900 2.074600 # CA NAP
446 1 1 -0.115000 1.870095 -8.573899 2.074600 # CA NAP
447 1 1 -0.115000 -0.235905 -7.373899 2.074600 # CA NAP
448 1 1 -0.115000 1.919095 -11.008899 2.074600 # CA NAP
449 1 1 -0.115000 1.166095 -7.361899 2.074600 # CA NAP
450 1 3 -0.065000 -2.449905 -8.417899 2.074600 # CM NAP
451 1 1 -0.115000 -0.139905 -12.291899 2.074600 # CA NAP
452 1 1 -0.115000 1.261095 -12.247899 2.074600 # CA NAP
453 1 4 0.115000 -1.891905 -11.206900 2.074600 # HA NAP
454 1 4 0.115000 2.894095 -8.535899 2.074600 # HA NAP
455 1 4 0.115000 -0.710905 -6.465899 2.074600 # HA NAP
456 1 4 0.115000 2.943095 -11.006899 2.074600 # HA NAP
457 1 4 0.115000 1.673095 -6.473899 2.074600 # HA NAP
458 1 5 0.021667 -2.761905 -7.859899 2.960600 # HM NAP
459 1 5 0.021667 -2.761905 -7.859899 1.188600 # HM NAP
460 1 5 0.021667 -3.030905 -9.335899 2.074600 # HM NAP
461 1 4 0.115000 -0.619905 -13.194899 2.074600 # HA NAP
462 1 4 0.115000 1.800095 -13.117899 2.074600 # HA NAP
463 1 2 0.000000 -0.253905 -9.821899 6.223800 # CB NAP
464 1 2 0.000000 1.179095 -9.802899 6.223800 # CB NAP
465 1 2 0.000000 -0.969905 -8.584899 6.223800 # CB NAP
466 1 1 -0.115000 -0.878905 -11.095900 6.223800 # CA NAP
467 1 1 -0.115000 1.870095 -8.573899 6.223800 # CA NAP
468 1 1 -0.115000 -0.235905 -7.373899 6.223800 # CA NAP
469 1 1 -0.115000 1.919095 -11.008899 6.223800 # CA NAP
470 1 1 -0.115000 1.166095 -7.361899 6.223800 # CA NAP
471 1 3 -0.065000 -2.449905 -8.417899 6.223800 # CM NAP
472 1 1 -0.115000 -0.139905 -12.291899 6.223800 # CA NAP
473 1 1 -0.115000 1.261095 -12.247899 6.223800 # CA NAP
474 1 4 0.115000 -1.891905 -11.206900 6.223800 # HA NAP
475 1 4 0.115000 2.894095 -8.535899 6.223800 # HA NAP
476 1 4 0.115000 -0.710905 -6.465899 6.223800 # HA NAP
477 1 4 0.115000 2.943095 -11.006899 6.223800 # HA NAP
478 1 4 0.115000 1.673095 -6.473899 6.223800 # HA NAP
479 1 5 0.021667 -2.761905 -7.859899 7.109800 # HM NAP
480 1 5 0.021667 -2.761905 -7.859899 5.337800 # HM NAP
481 1 5 0.021667 -3.030905 -9.335899 6.223800 # HM NAP
482 1 4 0.115000 -0.619905 -13.194899 6.223800 # HA NAP
483 1 4 0.115000 1.800095 -13.117899 6.223800 # HA NAP
484 1 2 0.000000 -0.253905 -9.821899 10.373000 # CB NAP
485 1 2 0.000000 1.179095 -9.802899 10.373000 # CB NAP
486 1 2 0.000000 -0.969905 -8.584899 10.373000 # CB NAP
487 1 1 -0.115000 -0.878905 -11.095900 10.373000 # CA NAP
488 1 1 -0.115000 1.870095 -8.573899 10.373000 # CA NAP
489 1 1 -0.115000 -0.235905 -7.373899 10.373000 # CA NAP
490 1 1 -0.115000 1.919095 -11.008899 10.373000 # CA NAP
491 1 1 -0.115000 1.166095 -7.361899 10.373000 # CA NAP
492 1 3 -0.065000 -2.449905 -8.417899 10.373000 # CM NAP
493 1 1 -0.115000 -0.139905 -12.291899 10.373000 # CA NAP
494 1 1 -0.115000 1.261095 -12.247899 10.373000 # CA NAP
495 1 4 0.115000 -1.891905 -11.206900 10.373000 # HA NAP
496 1 4 0.115000 2.894095 -8.535899 10.373000 # HA NAP
497 1 4 0.115000 -0.710905 -6.465899 10.373000 # HA NAP
498 1 4 0.115000 2.943095 -11.006899 10.373000 # HA NAP
499 1 4 0.115000 1.673095 -6.473899 10.373000 # HA NAP
500 1 5 0.021667 -2.761905 -7.859899 11.259000 # HM NAP
501 1 5 0.021667 -2.761905 -7.859899 9.487000 # HM NAP
502 1 5 0.021667 -3.030905 -9.335899 10.373000 # HM NAP
503 1 4 0.115000 -0.619905 -13.194899 10.373000 # HA NAP
504 1 4 0.115000 1.800095 -13.117899 10.373000 # HA NAP
505 1 2 0.000000 -0.253905 -0.220000 -10.373000 # CB NAP
506 1 2 0.000000 1.179095 -0.201000 -10.373000 # CB NAP
507 1 2 0.000000 -0.969905 1.017000 -10.373000 # CB NAP
508 1 1 -0.115000 -0.878905 -1.494000 -10.373000 # CA NAP
509 1 1 -0.115000 1.870095 1.028000 -10.373000 # CA NAP
510 1 1 -0.115000 -0.235905 2.228000 -10.373000 # CA NAP
511 1 1 -0.115000 1.919095 -1.407000 -10.373000 # CA NAP