ITEM: TIMESTEP
0
ITEM: NUMBER OF ATOMS
1134
ITEM: BOX BOUNDS pp pp pp
-13.4569 13.25
-14.6313 14.1743
-12.4476 12.4476
ITEM: ATOMS id type x y z ix iy iz 
1 2 -9.1562 -9.8219 -10.373 0 0 0 
2 2 -7.72321 -9.8029 -10.373 0 0 0 
3 2 -9.8722 -8.5849 -10.373 0 0 0 
4 1 -9.7812 -11.0959 -10.373 0 0 0 
5 1 -7.03221 -8.5739 -10.373 0 0 0 
6 1 -9.1382 -7.3739 -10.373 0 0 0 
7 1 -6.9832 -11.0089 -10.373 0 0 0 
8 1 -7.7362 -7.3619 -10.373 0 0 0 
9 3 -11.3522 -8.4179 -10.373 0 0 0 
10 1 -9.0422 -12.2919 -10.373 0 0 0 
11 1 -7.64121 -12.2479 -10.373 0 0 0 
12 4 -10.7942 -11.2069 -10.373 0 0 0 
13 4 -6.0082 -8.5359 -10.373 0 0 0 
14 4 -9.61321 -6.4659 -10.373 0 0 0 
15 4 -5.9592 -11.0069 -10.373 0 0 0 
16 4 -7.22921 -6.4739 -10.373 0 0 0 
17 5 -11.6642 -7.8599 -9.487 0 0 0 
18 5 -11.6642 -7.8599 -11.259 0 0 0 
19 5 -11.9332 -9.3359 -10.373 0 0 0 
20 4 -9.5222 -13.1949 -10.373 0 0 0 
21 4 -7.1022 -13.1179 -10.373 0 0 0 
22 2 -9.1562 -9.8219 -6.2238 0 0 0 
23 2 -7.72321 -9.8029 -6.2238 0 0 0 
24 2 -9.8722 -8.5849 -6.2238 0 0 0 
25 1 -9.7812 -11.0959 -6.2238 0 0 0 
26 1 -7.03221 -8.5739 -6.2238 0 0 0 
27 1 -9.1382 -7.3739 -6.2238 0 0 0 
28 1 -6.9832 -11.0089 -6.2238 0 0 0 
29 1 -7.7362 -7.3619 -6.2238 0 0 0 
30 3 -11.3522 -8.4179 -6.2238 0 0 0 
31 1 -9.0422 -12.2919 -6.2238 0 0 0 
32 1 -7.64121 -12.2479 -6.2238 0 0 0 
33 4 -10.7942 -11.2069 -6.2238 0 0 0 
34 4 -6.0082 -8.5359 -6.2238 0 0 0 
35 4 -9.61321 -6.4659 -6.2238 0 0 0 
36 4 -5.9592 -11.0069 -6.2238 0 0 0 
37 4 -7.22921 -6.4739 -6.2238 0 0 0 
38 5 -11.6642 -7.8599 -5.3378 0 0 0 
39 5 -11.6642 -7.8599 -7.1098 0 0 0 
40 5 -11.9332 -9.3359 -6.2238 0 0 0 
41 4 -9.5222 -13.1949 -6.2238 0 0 0 
42 4 -7.1022 -13.1179 -6.2238 0 0 0 
379 2 -0.253905 -9.8219 -10.373 0 0 0 
381 2 -0.969905 -8.5849 -10.373 0 0 0 
382 1 -0.878905 -11.0959 -10.373 0 0 0 
384 1 -0.235905 -7.3739 -10.373 0 0 0 
387 3 -2.44991 -8.4179 -10.373 0 0 0 
388 1 -0.139905 -12.2919 -10.373 0 0 0 
390 4 -1.8919 -11.2069 -10.373 0 0 0 
392 4 -0.710905 -6.4659 -10.373 0 0 0 
395 5 -2.76191 -7.8599 -9.487 0 0 0 
396 5 -2.76191 -7.8599 -11.259 0 0 0 
397 5 -3.03091 -9.3359 -10.373 0 0 0 
398 4 -0.619905 -13.1949 -10.373 0 0 0 
400 2 -0.253905 -9.8219 -6.2238 0 0 0 
402 2 -0.969905 -8.5849 -6.2238 0 0 0 
403 1 -0.878905 -11.0959 -6.2238 0 0 0 
405 1 -0.235905 -7.3739 -6.2238 0 0 0 
408 3 -2.44991 -8.4179 -6.2238 0 0 0 
409 1 -0.139905 -12.2919 -6.2238 0 0 0 
411 4 -1.8919 -11.2069 -6.2238 0 0 0 
413 4 -0.710905 -6.4659 -6.2238 0 0 0 
416 5 -2.76191 -7.8599 -5.3378 0 0 0 
417 5 -2.76191 -7.8599 -7.1098 0 0 0 
418 5 -3.03091 -9.3359 -6.2238 0 0 0 
419 4 -0.619905 -13.1949 -6.2238 0 0 0 
43 2 -9.1562 -9.8219 -2.0746 0 0 0 
44 2 -7.72321 -9.8029 -2.0746 0 0 0 
45 2 -9.8722 -8.5849 -2.0746 0 0 0 
46 1 -9.7812 -11.0959 -2.0746 0 0 0 
47 1 -7.03221 -8.5739 -2.0746 0 0 0 
48 1 -9.1382 -7.3739 -2.0746 0 0 0 
49 1 -6.9832 -11.0089 -2.0746 0 0 0 
50 1 -7.7362 -7.3619 -2.0746 0 0 0 
51 3 -11.3522 -8.4179 -2.0746 0 0 0 
52 1 -9.0422 -12.2919 -2.0746 0 0 0 
53 1 -7.64121 -12.2479 -2.0746 0 0 0 
54 4 -10.7942 -11.2069 -2.0746 0 0 0 
55 4 -6.0082 -8.5359 -2.0746 0 0 0 
56 4 -9.61321 -6.4659 -2.0746 0 0 0 
57 4 -5.9592 -11.0069 -2.0746 0 0 0 
58 4 -7.22921 -6.4739 -2.0746 0 0 0 
59 5 -11.6642 -7.8599 -1.1886 0 0 0 
60 5 -11.6642 -7.8599 -2.9606 0 0 0 
61 5 -11.9332 -9.3359 -2.0746 0 0 0 
62 4 -9.5222 -13.1949 -2.0746 0 0 0 
63 4 -7.1022 -13.1179 -2.0746 0 0 0 
64 2 -9.1562 -9.8219 2.0746 0 0 0 
65 2 -7.72321 -9.8029 2.0746 0 0 0 
66 2 -9.8722 -8.5849 2.0746 0 0 0 
67 1 -9.7812 -11.0959 2.0746 0 0 0 
68 1 -7.03221 -8.5739 2.0746 0 0 0 
69 1 -9.1382 -7.3739 2.0746 0 0 0 
70 1 -6.9832 -11.0089 2.0746 0 0 0 
71 1 -7.7362 -7.3619 2.0746 0 0 0 
72 3 -11.3522 -8.4179 2.0746 0 0 0 
73 1 -9.0422 -12.2919 2.0746 0 0 0 
74 1 -7.64121 -12.2479 2.0746 0 0 0 
75 4 -10.7942 -11.2069 2.0746 0 0 0 
76 4 -6.0082 -8.5359 2.0746 0 0 0 
77 4 -9.61321 -6.4659 2.0746 0 0 0 
78 4 -5.9592 -11.0069 2.0746 0 0 0 
79 4 -7.22921 -6.4739 2.0746 0 0 0 
80 5 -11.6642 -7.8599 2.9606 0 0 0 
81 5 -11.6642 -7.8599 1.1886 0 0 0 
82 5 -11.9332 -9.3359 2.0746 0 0 0 
83 4 -9.5222 -13.1949 2.0746 0 0 0 
84 4 -7.1022 -13.1179 2.0746 0 0 0 
421 2 -0.253905 -9.8219 -2.0746 0 0 0 
423 2 -0.969905 -8.5849 -2.0746 0 0 0 
424 1 -0.878905 -11.0959 -2.0746 0 0 0 
426 1 -0.235905 -7.3739 -2.0746 0 0 0 
429 3 -2.44991 -8.4179 -2.0746 0 0 0 
430 1 -0.139905 -12.2919 -2.0746 0 0 0 
432 4 -1.8919 -11.2069 -2.0746 0 0 0 
434 4 -0.710905 -6.4659 -2.0746 0 0 0 
437 5 -2.76191 -7.8599 -1.1886 0 0 0 
438 5 -2.76191 -7.8599 -2.9606 0 0 0 
439 5 -3.03091 -9.3359 -2.0746 0 0 0 
440 4 -0.619905 -13.1949 -2.0746 0 0 0 
442 2 -0.253905 -9.8219 2.0746 0 0 0 
444 2 -0.969905 -8.5849 2.0746 0 0 0 
445 1 -0.878905 -11.0959 2.0746 0 0 0 
447 1 -0.235905 -7.3739 2.0746 0 0 0 
450 3 -2.44991 -8.4179 2.0746 0 0 0 
451 1 -0.139905 -12.2919 2.0746 0 0 0 
453 4 -1.8919 -11.2069 2.0746 0 0 0 
455 4 -0.710905 -6.4659 2.0746 0 0 0 
458 5 -2.76191 -7.8599 2.9606 0 0 0 
459 5 -2.76191 -7.8599 1.1886 0 0 0 
460 5 -3.03091 -9.3359 2.0746 0 0 0 
461 4 -0.619905 -13.1949 2.0746 0 0 0 
85 2 -9.1562 -9.8219 6.2238 0 0 0 
86 2 -7.72321 -9.8029 6.2238 0 0 0 
87 2 -9.8722 -8.5849 6.2238 0 0 0 
88 1 -9.7812 -11.0959 6.2238 0 0 0 
89 1 -7.03221 -8.5739 6.2238 0 0 0 
90 1 -9.1382 -7.3739 6.2238 0 0 0 
91 1 -6.9832 -11.0089 6.2238 0 0 0 
92 1 -7.7362 -7.3619 6.2238 0 0 0 
93 3 -11.3522 -8.4179 6.2238 0 0 0 
94 1 -9.0422 -12.2919 6.2238 0 0 0 
95 1 -7.64121 -12.2479 6.2238 0 0 0 
96 4 -10.7942 -11.2069 6.2238 0 0 0 
97 4 -6.0082 -8.5359 6.2238 0 0 0 
98 4 -9.61321 -6.4659 6.2238 0 0 0 
99 4 -5.9592 -11.0069 6.2238 0 0 0 
100 4 -7.22921 -6.4739 6.2238 0 0 0 
101 5 -11.6642 -7.8599 7.1098 0 0 0 
102 5 -11.6642 -7.8599 5.3378 0 0 0 
103 5 -11.9332 -9.3359 6.2238 0 0 0 
104 4 -9.5222 -13.1949 6.2238 0 0 0 
105 4 -7.1022 -13.1179 6.2238 0 0 0 
106 2 -9.1562 -9.8219 10.373 0 0 0 
107 2 -7.72321 -9.8029 10.373 0 0 0 
108 2 -9.8722 -8.5849 10.373 0 0 0 
109 1 -9.7812 -11.0959 10.373 0 0 0 
110 1 -7.03221 -8.5739 10.373 0 0 0 
111 1 -9.1382 -7.3739 10.373 0 0 0 
112 1 -6.9832 -11.0089 10.373 0 0 0 
113 1 -7.7362 -7.3619 10.373 0 0 0 
114 3 -11.3522 -8.4179 10.373 0 0 0 
115 1 -9.0422 -12.2919 10.373 0 0 0 
116 1 -7.64121 -12.2479 10.373 0 0 0 
117 4 -10.7942 -11.2069 10.373 0 0 0 
118 4 -6.0082 -8.5359 10.373 0 0 0 
119 4 -9.61321 -6.4659 10.373 0 0 0 
120 4 -5.9592 -11.0069 10.373 0 0 0 
121 4 -7.22921 -6.4739 10.373 0 0 0 
122 5 -11.6642 -7.8599 11.259 0 0 0 
123 5 -11.6642 -7.8599 9.487 0 0 0 
124 5 -11.9332 -9.3359 10.373 0 0 0 
125 4 -9.5222 -13.1949 10.373 0 0 0 
126 4 -7.1022 -13.1179 10.373 0 0 0 
463 2 -0.253905 -9.8219 6.2238 0 0 0 
465 2 -0.969905 -8.5849 6.2238 0 0 0 
466 1 -0.878905 -11.0959 6.2238 0 0 0 
468 1 -0.235905 -7.3739 6.2238 0 0 0 
471 3 -2.44991 -8.4179 6.2238 0 0 0 
472 1 -0.139905 -12.2919 6.2238 0 0 0 
474 4 -1.8919 -11.2069 6.2238 0 0 0 
476 4 -0.710905 -6.4659 6.2238 0 0 0 
479 5 -2.76191 -7.8599 7.1098 0 0 0 
480 5 -2.76191 -7.8599 5.3378 0 0 0 
481 5 -3.03091 -9.3359 6.2238 0 0 0 
482 4 -0.619905 -13.1949 6.2238 0 0 0 
484 2 -0.253905 -9.8219 10.373 0 0 0 
486 2 -0.969905 -8.5849 10.373 0 0 0 
487 1 -0.878905 -11.0959 10.373 0 0 0 
489 1 -0.235905 -7.3739 10.373 0 0 0 
492 3 -2.44991 -8.4179 10.373 0 0 0 
493 1 -0.139905 -12.2919 10.373 0 0 0 
495 4 -1.8919 -11.2069 10.373 0 0 0 
497 4 -0.710905 -6.4659 10.373 0 0 0 
500 5 -2.76191 -7.8599 11.259 0 0 0 
501 5 -2.76191 -7.8599 9.487 0 0 0 
502 5 -3.03091 -9.3359 10.373 0 0 0 
503 4 -0.619905 -13.1949 10.373 0 0 0 
127 2 -9.1562 -0.22 -10.373 0 0 0 
128 2 -7.72321 -0.201 -10.373 0 0 0 
129 2 -9.8722 1.017 -10.373 0 0 0 
130 1 -9.7812 -1.494 -10.373 0 0 0 
131 1 -7.03221 1.028 -10.373 0 0 0 
132 1 -9.1382 2.228 -10.373 0 0 0 
133 1 -6.9832 -1.407 -10.373 0 0 0 
134 1 -7.7362 2.24 -10.373 0 0 0 
135 3 -11.3522 1.184 -10.373 0 0 0 
136 1 -9.0422 -2.69 -10.373 0 0 0 
137 1 -7.64121 -2.646 -10.373 0 0 0 
138 4 -10.7942 -1.605 -10.373 0 0 0 
139 4 -6.0082 1.066 -10.373 0 0 0 
140 4 -9.61321 3.136 -10.373 0 0 0 
141 4 -5.9592 -1.405 -10.373 0 0 0 
142 4 -7.22921 3.128 -10.373 0 0 0 
143 5 -11.6642 1.742 -9.487 0 0 0 
144 5 -11.6642 1.742 -11.259 0 0 0 
145 5 -11.9332 0.266 -10.373 0 0 0 
146 4 -9.5222 -3.593 -10.373 0 0 0 
147 4 -7.1022 -3.516 -10.373 0 0 0 
148 2 -9.1562 -0.22 -6.2238 0 0 0 
149 2 -7.72321 -0.201 -6.2238 0 0 0 
150 2 -9.8722 1.017 -6.2238 0 0 0 
151 1 -9.7812 -1.494 -6.2238 0 0 0 
152 1 -7.03221 1.028 -6.2238 0 0 0 
153 1 -9.1382 2.228 -6.2238 0 0 0 
154 1 -6.9832 -1.407 -6.2238 0 0 0 
155 1 -7.7362 2.24 -6.2238 0 0 0 
156 3 -11.3522 1.184 -6.2238 0 0 0 
157 1 -9.0422 -2.69 -6.2238 0 0 0 
158 1 -7.64121 -2.646 -6.2238 0 0 0 
159 4 -10.7942 -1.605 -6.2238 0 0 0 
160 4 -6.0082 1.066 -6.2238 0 0 0 
161 4 -9.61321 3.136 -6.2238 0 0 0 
162 4 -5.9592 -1.405 -6.2238 0 0 0 
163 4 -7.22921 3.128 -6.2238 0 0 0 
164 5 -11.6642 1.742 -5.3378 0 0 0 
165 5 -11.6642 1.742 -7.1098 0 0 0 
166 5 -11.9332 0.266 -6.2238 0 0 0 
167 4 -9.5222 -3.593 -6.2238 0 0 0 
168 4 -7.1022 -3.516 -6.2238 0 0 0 
505 2 -0.253905 -0.22 -10.373 0 0 0 
507 2 -0.969905 1.017 -10.373 0 0 0 
508 1 -0.878905 -1.494 -10.373 0 0 0 
510 1 -0.235905 2.228 -10.373 0 0 0 
513 3 -2.44991 1.184 -10.373 0 0 0 
514 1 -0.139905 -2.69 -10.373 0 0 0 
516 4 -1.8919 -1.605 -10.373 0 0 0 
518 4 -0.710905 3.136 -10.373 0 0 0 
521 5 -2.76191 1.742 -9.487 0 0 0 
522 5 -2.76191 1.742 -11.259 0 0 0 
523 5 -3.03091 0.266 -10.373 0 0 0 
524 4 -0.619905 -3.593 -10.373 0 0 0 
526 2 -0.253905 -0.22 -6.2238 0 0 0 
528 2 -0.969905 1.017 -6.2238 0 0 0 
529 1 -0.878905 -1.494 -6.2238 0 0 0 
531 1 -0.235905 2.228 -6.2238 0 0 0 
534 3 -2.44991 1.184 -6.2238 0 0 0 
535 1 -0.139905 -2.69 -6.2238 0 0 0 
537 4 -1.8919 -1.605 -6.2238 0 0 0 
539 4 -0.710905 3.136 -6.2238 0 0 0 
542 5 -2.76191 1.742 -5.3378 0 0 0 
543 5 -2.76191 1.742 -7.1098 0 0 0 
544 5 -3.03091 0.266 -6.2238 0 0 0 
545 4 -0.619905 -3.593 -6.2238 0 0 0 
169 2 -9.1562 -0.22 -2.0746 0 0 0 
170 2 -7.72321 -0.201 -2.0746 0 0 0 
171 2 -9.8722 1.017 -2.0746 0 0 0 
172 1 -9.7812 -1.494 -2.0746 0 0 0 
173 1 -7.03221 1.028 -2.0746 0 0 0 
174 1 -9.1382 2.228 -2.0746 0 0 0 
175 1 -6.9832 -1.407 -2.0746 0 0 0 
176 1 -7.7362 2.24 -2.0746 0 0 0 
177 3 -11.3522 1.184 -2.0746 0 0 0 
178 1 -9.0422 -2.69 -2.0746 0 0 0 
179 1 -7.64121 -2.646 -2.0746 0 0 0 
180 4 -10.7942 -1.605 -2.0746 0 0 0 
181 4 -6.0082 1.066 -2.0746 0 0 0 
182 4 -9.61321 3.136 -2.0746 0 0 0 
183 4 -5.9592 -1.405 -2.0746 0 0 0 
184 4 -7.22921 3.128 -2.0746 0 0 0 
185 5 -11.6642 1.742 -1.1886 0 0 0 
186 5 -11.6642 1.742 -2.9606 0 0 0 
187 5 -11.9332 0.266 -2.0746 0 0 0 
188 4 -9.5222 -3.593 -2.0746 0 0 0 
189 4 -7.1022 -3.516 -2.0746 0 0 0 
190 2 -9.1562 -0.22 2.0746 0 0 0 
191 2 -7.72321 -0.201 2.0746 0 0 0 
192 2 -9.8722 1.017 2.0746 0 0 0 
193 1 -9.7812 -1.494 2.0746 0 0 0 
194 1 -7.03221 1.028 2.0746 0 0 0 
195 1 -9.1382 2.228 2.0746 0 0 0 
196 1 -6.9832 -1.407 2.0746 0 0 0 
197 1 -7.7362 2.24 2.0746 0 0 0 
198 3 -11.3522 1.184 2.0746 0 0 0 
199 1 -9.0422 -2.69 2.0746 0 0 0 
200 1 -7.64121 -2.646 2.0746 0 0 0 
201 4 -10.7942 -1.605 2.0746 0 0 0 
202 4 -6.0082 1.066 2.0746 0 0 0 
203 4 -9.61321 3.136 2.0746 0 0 0 
204 4 -5.9592 -1.405 2.0746 0 0 0 
205 4 -7.22921 3.128 2.0746 0 0 0 
206 5 -11.6642 1.742 2.9606 0 0 0 
207 5 -11.6642 1.742 1.1886 0 0 0 
208 5 -11.9332 0.266 2.0746 0 0 0 
209 4 -9.5222 -3.593 2.0746 0 0 0 
210 4 -7.1022 -3.516 2.0746 0 0 0 
547 2 -0.253905 -0.22 -2.0746 0 0 0 
549 2 -0.969905 1.017 -2.0746 0 0 0 
550 1 -0.878905 -1.494 -2.0746 0 0 0 
552 1 -0.235905 2.228 -2.0746 0 0 0 
555 3 -2.44991 1.184 -2.0746 0 0 0 
556 1 -0.139905 -2.69 -2.0746 0 0 0 
558 4 -1.8919 -1.605 -2.0746 0 0 0 
560 4 -0.710905 3.136 -2.0746 0 0 0 
563 5 -2.76191 1.742 -1.1886 0 0 0 
564 5 -2.76191 1.742 -2.9606 0 0 0 
565 5 -3.03091 0.266 -2.0746 0 0 0 
566 4 -0.619905 -3.593 -2.0746 0 0 0 
568 2 -0.253905 -0.22 2.0746 0 0 0 
570 2 -0.969905 1.017 2.0746 0 0 0 
571 1 -0.878905 -1.494 2.0746 0 0 0 
573 1 -0.235905 2.228 2.0746 0 0 0 
576 3 -2.44991 1.184 2.0746 0 0 0 
577 1 -0.139905 -2.69 2.0746 0 0 0 
579 4 -1.8919 -1.605 2.0746 0 0 0 
581 4 -0.710905 3.136 2.0746 0 0 0 
584 5 -2.76191 1.742 2.9606 0 0 0 
585 5 -2.76191 1.742 1.1886 0 0 0 
586 5 -3.03091 0.266 2.0746 0 0 0 
587 4 -0.619905 -3.593 2.0746 0 0 0 
211 2 -9.1562 -0.22 6.2238 0 0 0 
212 2 -7.72321 -0.201 6.2238 0 0 0 
213 2 -9.8722 1.017 6.2238 0 0 0 
214 1 -9.7812 -1.494 6.2238 0 0 0 
215 1 -7.03221 1.028 6.2238 0 0 0 
216 1 -9.1382 2.228 6.2238 0 0 0 
217 1 -6.9832 -1.407 6.2238 0 0 0 
218 1 -7.7362 2.24 6.2238 0 0 0 
219 3 -11.3522 1.184 6.2238 0 0 0 
220 1 -9.0422 -2.69 6.2238 0 0 0 
221 1 -7.64121 -2.646 6.2238 0 0 0 
222 4 -10.7942 -1.605 6.2238 0 0 0 
223 4 -6.0082 1.066 6.2238 0 0 0 
224 4 -9.61321 3.136 6.2238 0 0 0 
225 4 -5.9592 -1.405 6.2238 0 0 0 
226 4 -7.22921 3.128 6.2238 0 0 0 
227 5 -11.6642 1.742 7.1098 0 0 0 
228 5 -11.6642 1.742 5.3378 0 0 0 
229 5 -11.9332 0.266 6.2238 0 0 0 
230 4 -9.5222 -3.593 6.2238 0 0 0 
231 4 -7.1022 -3.516 6.2238 0 0 0 
232 2 -9.1562 -0.22 10.373 0 0 0 
233 2 -7.72321 -0.201 10.373 0 0 0 
234 2 -9.8722 1.017 10.373 0 0 0 
235 1 -9.7812 -1.494 10.373 0 0 0 
236 1 -7.03221 1.028 10.373 0 0 0 
237 1 -9.1382 2.228 10.373 0 0 0 
238 1 -6.9832 -1.407 10.373 0 0 0 
239 1 -7.7362 2.24 10.373 0 0 0 
240 3 -11.3522 1.184 10.373 0 0 0 
241 1 -9.0422 -2.69 10.373 0 0 0 
242 1 -7.64121 -2.646 10.373 0 0 0 
243 4 -10.7942 -1.605 10.373 0 0 0 
244 4 -6.0082 1.066 10.373 0 0 0 
245 4 -9.61321 3.136 10.373 0 0 0 
246 4 -5.9592 -1.405 10.373 0 0 0 
247 4 -7.22921 3.128 10.373 0 0 0 
248 5 -11.6642 1.742 11.259 0 0 0 
249 5 -11.6642 1.742 9.487 0 0 0 
250 5 -11.9332 0.266 10.373 0 0 0 
251 4 -9.5222 -3.593 10.373 0 0 0 
252 4 -7.1022 -3.516 10.373 0 0 0 
589 2 -0.253905 -0.22 6.2238 0 0 0 
591 2 -0.969905 1.017 6.2238 0 0 0 
592 1 -0.878905 -1.494 6.2238 0 0 0 
594 1 -0.235905 2.228 6.2238 0 0 0 
597 3 -2.44991 1.184 6.2238 0 0 0 
598 1 -0.139905 -2.69 6.2238 0 0 0 
600 4 -1.8919 -1.605 6.2238 0 0 0 
602 4 -0.710905 3.136 6.2238 0 0 0 
605 5 -2.76191 1.742 7.1098 0 0 0 
606 5 -2.76191 1.742 5.3378 0 0 0 
607 5 -3.03091 0.266 6.2238 0 0 0 
608 4 -0.619905 -3.593 6.2238 0 0 0 
610 2 -0.253905 -0.22 10.373 0 0 0 
612 2 -0.969905 1.017 10.373 0 0 0 
613 1 -0.878905 -1.494 10.373 0 0 0 
615 1 -0.235905 2.228 10.373 0 0 0 
618 3 -2.44991 1.184 10.373 0 0 0 
619 1 -0.139905 -2.69 10.373 0 0 0 
621 4 -1.8919 -1.605 10.373 0 0 0 
623 4 -0.710905 3.136 10.373 0 0 0 
626 5 -2.76191 1.742 11.259 0 0 0 
627 5 -2.76191 1.742 9.487 0 0 0 
628 5 -3.03091 0.266 10.373 0 0 0 
629 4 -0.619905 -3.593 10.373 0 0 0 
253 2 -9.1562 9.3819 -10.373 0 0 0 
254 2 -7.72321 9.4009 -10.373 0 0 0 
255 2 -9.8722 10.6189 -10.373 0 0 0 
256 1 -9.7812 8.1079 -10.373 0 0 0 
257 1 -7.03221 10.6299 -10.373 0 0 0 
258 1 -9.1382 11.8299 -10.373 0 0 0 
259 1 -6.9832 8.1949 -10.373 0 0 0 
260 1 -7.7362 11.8419 -10.373 0 0 0 
261 3 -11.3522 10.7859 -10.373 0 0 0 
262 1 -9.0422 6.9119 -10.373 0 0 0 
263 1 -7.64121 6.9559 -10.373 0 0 0 
264 4 -10.7942 7.9969 -10.373 0 0 0 
265 4 -6.0082 10.6679 -10.373 0 0 0 
266 4 -9.61321 12.7379 -10.373 0 0 0 
267 4 -5.9592 8.1969 -10.373 0 0 0 
268 4 -7.22921 12.7299 -10.373 0 0 0 
269 5 -11.6642 11.3439 -9.487 0 0 0 
270 5 -11.6642 11.3439 -11.259 0 0 0 
271 5 -11.9332 9.8679 -10.373 0 0 0 
272 4 -9.5222 6.0089 -10.373 0 0 0 
273 4 -7.1022 6.0859 -10.373 0 0 0 
274 2 -9.1562 9.3819 -6.2238 0 0 0 
275 2 -7.72321 9.4009 -6.2238 0 0 0 
276 2 -9.8722 10.6189 -6.2238 0 0 0 
277 1 -9.7812 8.1079 -6.2238 0 0 0 
278 1 -7.03221 10.6299 -6.2238 0 0 0 
279 1 -9.1382 11.8299 -6.2238 0 0 0 
280 1 -6.9832 8.1949 -6.2238 0 0 0 
281 1 -7.7362 11.8419 -6.2238 0 0 0 
282 3 -11.3522 10.7859 -6.2238 0 0 0 
283 1 -9.0422 6.9119 -6.2238 0 0 0 
284 1 -7.64121 6.9559 -6.2238 0 0 0 
285 4 -10.7942 7.9969 -6.2238 0 0 0 
286 4 -6.0082 10.6679 -6.2238 0 0 0 
287 4 -9.61321 12.7379 -6.2238 0 0 0 
288 4 -5.9592 8.1969 -6.2238 0 0 0 
289 4 -7.22921 12.7299 -6.2238 0 0 0 
290 5 -11.6642 11.3439 -5.3378 0 0 0 
291 5 -11.6642 11.3439 -7.1098 0 0 0 
292 5 -11.9332 9.8679 -6.2238 0 0 0 
293 4 -9.5222 6.0089 -6.2238 0 0 0 
294 4 -7.1022 6.0859 -6.2238 0 0 0 
631 2 -0.253905 9.3819 -10.373 0 0 0 
633 2 -0.969905 10.6189 -10.373 0 0 0 
634 1 -0.878905 8.1079 -10.373 0 0 0 
636 1 -0.235905 11.8299 -10.373 0 0 0 
639 3 -2.44991 10.7859 -10.373 0 0 0 
640 1 -0.139905 6.9119 -10.373 0 0 0 
642 4 -1.8919 7.9969 -10.373 0 0 0 
644 4 -0.710905 12.7379 -10.373 0 0 0 
647 5 -2.76191 11.3439 -9.487 0 0 0 
648 5 -2.76191 11.3439 -11.259 0 0 0 
649 5 -3.03091 9.8679 -10.373 0 0 0 
650 4 -0.619905 6.0089 -10.373 0 0 0 
652 2 -0.253905 9.3819 -6.2238 0 0 0 
654 2 -0.969905 10.6189 -6.2238 0 0 0 
655 1 -0.878905 8.1079 -6.2238 0 0 0 
657 1 -0.235905 11.8299 -6.2238 0 0 0 
660 3 -2.44991 10.7859 -6.2238 0 0 0 
661 1 -0.139905 6.9119 -6.2238 0 0 0 
663 4 -1.8919 7.9969 -6.2238 0 0 0 
665 4 -0.710905 12.7379 -6.2238 0 0 0 
668 5 -2.76191 11.3439 -5.3378 0 0 0 
669 5 -2.76191 11.3439 -7.1098 0 0 0 
670 5 -3.03091 9.8679 -6.2238 0 0 0 
671 4 -0.619905 6.0089 -6.2238 0 0 0 
295 2 -9.1562 9.3819 -2.0746 0 0 0 
296 2 -7.72321 9.4009 -2.0746 0 0 0 
297 2 -9.8722 10.6189 -2.0746 0 0 0 
298 1 -9.7812 8.1079 -2.0746 0 0 0 
299 1 -7.03221 10.6299 -2.0746 0 0 0 
300 1 -9.1382 11.8299 -2.0746 0 0 0 
301 1 -6.9832 8.1949 -2.0746 0 0 0 
302 1 -7.7362 11.8419 -2.0746 0 0 0 
303 3 -11.3522 10.7859 -2.0746 0 0 0 
304 1 -9.0422 6.9119 -2.0746 0 0 0 
305 1 -7.64121 6.9559 -2.0746 0 0 0 
306 4 -10.7942 7.9969 -2.0746 0 0 0 
307 4 -6.0082 10.6679 -2.0746 0 0 0 
308 4 -9.61321 12.7379 -2.0746 0 0 0 
309 4 -5.9592 8.1969 -2.0746 0 0 0 
310 4 -7.22921 12.7299 -2.0746 0 0 0 
311 5 -11.6642 11.3439 -1.1886 0 0 0 
312 5 -11.6642 11.3439 -2.9606 0 0 0 
313 5 -11.9332 9.8679 -2.0746 0 0 0 
314 4 -9.5222 6.0089 -2.0746 0 0 0 
315 4 -7.1022 6.0859 -2.0746 0 0 0 
316 2 -9.1562 9.3819 2.0746 0 0 0 
317 2 -7.72321 9.4009 2.0746 0 0 0 
318 2 -9.8722 10.6189 2.0746 0 0 0 
319 1 -9.7812 8.1079 2.0746 0 0 0 
320 1 -7.03221 10.6299 2.0746 0 0 0 
321 1 -9.1382 11.8299 2.0746 0 0 0 
322 1 -6.9832 8.1949 2.0746 0 0 0 
323 1 -7.7362 11.8419 2.0746 0 0 0 
324 3 -11.3522 10.7859 2.0746 0 0 0 
325 1 -9.0422 6.9119 2.0746 0 0 0 
326 1 -7.64121 6.9559 2.0746 0 0 0 
327 4 -10.7942 7.9969 2.0746 0 0 0 
328 4 -6.0082 10.6679 2.0746 0 0 0 
329 4 -9.61321 12.7379 2.0746 0 0 0 
330 4 -5.9592 8.1969 2.0746 0 0 0 
331 4 -7.22921 12.7299 2.0746 0 0 0 
332 5 -11.6642 11.3439 2.9606 0 0 0 
333 5 -11.6642 11.3439 1.1886 0 0 0 
334 5 -11.9332 9.8679 2.0746 0 0 0 
335 4 -9.5222 6.0089 2.0746 0 0 0 
336 4 -7.1022 6.0859 2.0746 0 0 0 
673 2 -0.253905 9.3819 -2.0746 0 0 0 
675 2 -0.969905 10.6189 -2.0746 0 0 0 
676 1 -0.878905 8.1079 -2.0746 0 0 0 
678 1 -0.235905 11.8299 -2.0746 0 0 0 
681 3 -2.44991 10.7859 -2.0746 0 0 0 
682 1 -0.139905 6.9119 -2.0746 0 0 0 
684 4 -1.8919 7.9969 -2.0746 0 0 0 
686 4 -0.710905 12.7379 -2.0746 0 0 0 
689 5 -2.76191 11.3439 -1.1886 0 0 0 
690 5 -2.76191 11.3439 -2.9606 0 0 0 
691 5 -3.03091 9.8679 -2.0746 0 0 0 
692 4 -0.619905 6.0089 -2.0746 0 0 0 
694 2 -0.253905 9.3819 2.0746 0 0 0 
696 2 -0.969905 10.6189 2.0746 0 0 0 
697 1 -0.878905 8.1079 2.0746 0 0 0 
699 1 -0.235905 11.8299 2.0746 0 0 0 
702 3 -2.44991 10.7859 2.0746 0 0 0 
703 1 -0.139905 6.9119 2.0746 0 0 0 
705 4 -1.8919 7.9969 2.0746 0 0 0 
707 4 -0.710905 12.7379 2.0746 0 0 0 
710 5 -2.76191 11.3439 2.9606 0 0 0 
711 5 -2.76191 11.3439 1.1886 0 0 0 
712 5 -3.03091 9.8679 2.0746 0 0 0 
713 4 -0.619905 6.0089 2.0746 0 0 0 
337 2 -9.1562 9.3819 6.2238 0 0 0 
338 2 -7.72321 9.4009 6.2238 0 0 0 
339 2 -9.8722 10.6189 6.2238 0 0 0 
340 1 -9.7812 8.1079 6.2238 0 0 0 
341 1 -7.03221 10.6299 6.2238 0 0 0 
342 1 -9.1382 11.8299 6.2238 0 0 0 
343 1 -6.9832 8.1949 6.2238 0 0 0 
344 1 -7.7362 11.8419 6.2238 0 0 0 
345 3 -11.3522 10.7859 6.2238 0 0 0 
346 1 -9.0422 6.9119 6.2238 0 0 0 
347 1 -7.64121 6.9559 6.2238 0 0 0 
348 4 -10.7942 7.9969 6.2238 0 0 0 
349 4 -6.0082 10.6679 6.2238 0 0 0 
350 4 -9.61321 12.7379 6.2238 0 0 0 
351 4 -5.9592 8.1969 6.2238 0 0 0 
352 4 -7.22921 12.7299 6.2238 0 0 0 
353 5 -11.6642 11.3439 7.1098 0 0 0 
354 5 -11.6642 11.3439 5.3378 0 0 0 
355 5 -11.9332 9.8679 6.2238 0 0 0 
356 4 -9.5222 6.0089 6.2238 0 0 0 
357 4 -7.1022 6.0859 6.2238 0 0 0 
358 2 -9.1562 9.3819 10.373 0 0 0 
359 2 -7.72321 9.4009 10.373 0 0 0 
360 2 -9.8722 10.6189 10.373 0 0 0 
361 1 -9.7812 8.1079 10.373 0 0 0 
362 1 -7.03221 10.6299 10.373 0 0 0 
363 1 -9.1382 11.8299 10.373 0 0 0 
364 1 -6.9832 8.1949 10.373 0 0 0 
365 1 -7.7362 11.8419 10.373 0 0 0 
366 3 -11.3522 10.7859 10.373 0 0 0 
367 1 -9.0422 6.9119 10.373 0 0 0 
368 1 -7.64121 6.9559 10.373 0 0 0 
369 4 -10.7942 7.9969 10.373 0 0 0 
370 4 -6.0082 10.6679 10.373 0 0 0 
371 4 -9.61321 12.7379 10.373 0 0 0 
372 4 -5.9592 8.1969 10.373 0 0 0 
373 4 -7.22921 12.7299 10.373 0 0 0 
374 5 -11.6642 11.3439 11.259 0 0 0 
375 5 -11.6642 11.3439 9.487 0 0 0 
376 5 -11.9332 9.8679 10.373 0 0 0 
377 4 -9.5222 6.0089 10.373 0 0 0 
378 4 -7.1022 6.0859 10.373 0 0 0 
715 2 -0.253905 9.3819 6.2238 0 0 0 
717 2 -0.969905 10.6189 6.2238 0 0 0 
718 1 -0.878905 8.1079 6.2238 0 0 0 
720 1 -0.235905 11.8299 6.2238 0 0 0 
723 3 -2.44991 10.7859 6.2238 0 0 0 
724 1 -0.139905 6.9119 6.2238 0 0 0 
726 4 -1.8919 7.9969 6.2238 0 0 0 
728 4 -0.710905 12.7379 6.2238 0 0 0 
731 5 -2.76191 11.3439 7.1098 0 0 0 
732 5 -2.76191 11.3439 5.3378 0 0 0 
733 5 -3.03091 9.8679 6.2238 0 0 0 
734 4 -0.619905 6.0089 6.2238 0 0 0 
736 2 -0.253905 9.3819 10.373 0 0 0 
738 2 -0.969905 10.6189 10.373 0 0 0 
739 1 -0.878905 8.1079 10.373 0 0 0 
741 1 -0.235905 11.8299 10.373 0 0 0 
744 3 -2.44991 10.7859 10.373 0 0 0 
745 1 -0.139905 6.9119 10.373 0 0 0 
747 4 -1.8919 7.9969 10.373 0 0 0 
749 4 -0.710905 12.7379 10.373 0 0 0 
752 5 -2.76191 11.3439 11.259 0 0 0 
753 5 -2.76191 11.3439 9.487 0 0 0 
754 5 -3.03091 9.8679 10.373 0 0 0 
755 4 -0.619905 6.0089 10.373 0 0 0 
380 2 1.1791 -9.8029 -10.373 0 0 0 
383 1 1.8701 -8.5739 -10.373 0 0 0 
385 1 1.91909 -11.0089 -10.373 0 0 0 
386 1 1.1661 -7.3619 -10.373 0 0 0 
389 1 1.2611 -12.2479 -10.373 0 0 0 
391 4 2.8941 -8.5359 -10.373 0 0 0 
393 4 2.9431 -11.0069 -10.373 0 0 0 
394 4 1.67309 -6.4739 -10.373 0 0 0 
399 4 1.8001 -13.1179 -10.373 0 0 0 
401 2 1.1791 -9.8029 -6.2238 0 0 0 
404 1 1.8701 -8.5739 -6.2238 0 0 0 
406 1 1.91909 -11.0089 -6.2238 0 0 0 
407 1 1.1661 -7.3619 -6.2238 0 0 0 
410 1 1.2611 -12.2479 -6.2238 0 0 0 
412 4 2.8941 -8.5359 -6.2238 0 0 0 
414 4 2.9431 -11.0069 -6.2238 0 0 0 
415 4 1.67309 -6.4739 -6.2238 0 0 0 
420 4 1.8001 -13.1179 -6.2238 0 0 0 
757 2 8.6484 -9.8219 -10.373 0 0 0 
758 2 10.0814 -9.8029 -10.373 0 0 0 
759 2 7.93239 -8.5849 -10.373 0 0 0 
760 1 8.0234 -11.0959 -10.373 0 0 0 
761 1 10.7724 -8.5739 -10.373 0 0 0 
762 1 8.66639 -7.3739 -10.373 0 0 0 
763 1 10.8214 -11.0089 -10.373 0 0 0 
764 1 10.0684 -7.3619 -10.373 0 0 0 
765 3 6.4524 -8.4179 -10.373 0 0 0 
766 1 8.76239 -12.2919 -10.373 0 0 0 
767 1 10.1634 -12.2479 -10.373 0 0 0 
768 4 7.01039 -11.2069 -10.373 0 0 0 
769 4 11.7964 -8.5359 -10.373 0 0 0 
770 4 8.19139 -6.4659 -10.373 0 0 0 
771 4 11.8454 -11.0069 -10.373 0 0 0 
772 4 10.5754 -6.4739 -10.373 0 0 0 
773 5 6.14039 -7.8599 -9.487 0 0 0 
774 5 6.14039 -7.8599 -11.259 0 0 0 
775 5 5.87139 -9.3359 -10.373 0 0 0 
776 4 8.28239 -13.1949 -10.373 0 0 0 
777 4 10.7024 -13.1179 -10.373 0 0 0 
778 2 8.6484 -9.8219 -6.2238 0 0 0 
779 2 10.0814 -9.8029 -6.2238 0 0 0 
780 2 7.93239 -8.5849 -6.2238 0 0 0 
781 1 8.0234 -11.0959 -6.2238 0 0 0 
782 1 10.7724 -8.5739 -6.2238 0 0 0 
783 1 8.66639 -7.3739 -6.2238 0 0 0 
784 1 10.8214 -11.0089 -6.2238 0 0 0 
785 1 10.0684 -7.3619 -6.2238 0 0 0 
786 3 6.4524 -8.4179 -6.2238 0 0 0 
787 1 8.76239 -12.2919 -6.2238 0 0 0 
788 1 10.1634 -12.2479 -6.2238 0 0 0 
789 4 7.01039 -11.2069 -6.2238 0 0 0 
790 4 11.7964 -8.5359 -6.2238 0 0 0 
791 4 8.19139 -6.4659 -6.2238 0 0 0 
792 4 11.8454 -11.0069 -6.2238 0 0 0 
793 4 10.5754 -6.4739 -6.2238 0 0 0 
794 5 6.14039 -7.8599 -5.3378 0 0 0 
795 5 6.14039 -7.8599 -7.1098 0 0 0 
796 5 5.87139 -9.3359 -6.2238 0 0 0 
797 4 8.28239 -13.1949 -6.2238 0 0 0 
798 4 10.7024 -13.1179 -6.2238 0 0 0 
422 2 1.1791 -9.8029 -2.0746 0 0 0 
425 1 1.8701 -8.5739 -2.0746 0 0 0 
427 1 1.91909 -11.0089 -2.0746 0 0 0 
428 1 1.1661 -7.3619 -2.0746 0 0 0 
431 1 1.2611 -12.2479 -2.0746 0 0 0 
433 4 2.8941 -8.5359 -2.0746 0 0 0 
435 4 2.9431 -11.0069 -2.0746 0 0 0 
436 4 1.67309 -6.4739 -2.0746 0 0 0 
441 4 1.8001 -13.1179 -2.0746 0 0 0 
443 2 1.1791 -9.8029 2.0746 0 0 0 
446 1 1.8701 -8.5739 2.0746 0 0 0 
448 1 1.91909 -11.0089 2.0746 0 0 0 
449 1 1.1661 -7.3619 2.0746 0 0 0 
452 1 1.2611 -12.2479 2.0746 0 0 0 
454 4 2.8941 -8.5359 2.0746 0 0 0 
456 4 2.9431 -11.0069 2.0746 0 0 0 
457 4 1.67309 -6.4739 2.0746 0 0 0 
462 4 1.8001 -13.1179 2.0746 0 0 0 
799 2 8.6484 -9.8219 -2.0746 0 0 0 
800 2 10.0814 -9.8029 -2.0746 0 0 0 
801 2 7.93239 -8.5849 -2.0746 0 0 0 
802 1 8.0234 -11.0959 -2.0746 0 0 0 
803 1 10.7724 -8.5739 -2.0746 0 0 0 
804 1 8.66639 -7.3739 -2.0746 0 0 0 
805 1 10.8214 -11.0089 -2.0746 0 0 0 
806 1 10.0684 -7.3619 -2.0746 0 0 0 
807 3 6.4524 -8.4179 -2.0746 0 0 0 
808 1 8.76239 -12.2919 -2.0746 0 0 0 
809 1 10.1634 -12.2479 -2.0746 0 0 0 
810 4 7.01039 -11.2069 -2.0746 0 0 0 
811 4 11.7964 -8.5359 -2.0746 0 0 0 
812 4 8.19139 -6.4659 -2.0746 0 0 0 
813 4 11.8454 -11.0069 -2.0746 0 0 0 
814 4 10.5754 -6.4739 -2.0746 0 0 0 
815 5 6.14039 -7.8599 -1.1886 0 0 0 
816 5 6.14039 -7.8599 -2.9606 0 0 0 
817 5 5.87139 -9.3359 -2.0746 0 0 0 
818 4 8.28239 -13.1949 -2.0746 0 0 0 
819 4 10.7024 -13.1179 -2.0746 0 0 0 
820 2 8.6484 -9.8219 2.0746 0 0 0 
821 2 10.0814 -9.8029 2.0746 0 0 0 
822 2 7.93239 -8.5849 2.0746 0 0 0 
823 1 8.0234 -11.0959 2.0746 0 0 0 
824 1 10.7724 -8.5739 2.0746 0 0 0 
825 1 8.66639 -7.3739 2.0746 0 0 0 
826 1 10.8214 -11.0089 2.0746 0 0 0 
827 1 10.0684 -7.3619 2.0746 0 0 0 
828 3 6.4524 -8.4179 2.0746 0 0 0 
829 1 8.76239 -12.2919 2.0746 0 0 0 
830 1 10.1634 -12.2479 2.0746 0 0 0 
831 4 7.01039 -11.2069 2.0746 0 0 0 
832 4 11.7964 -8.5359 2.0746 0 0 0 
833 4 8.19139 -6.4659 2.0746 0 0 0 
834 4 11.8454 -11.0069 2.0746 0 0 0 
835 4 10.5754 -6.4739 2.0746 0 0 0 
836 5 6.14039 -7.8599 2.9606 0 0 0 
837 5 6.14039 -7.8599 1.1886 0 0 0 
838 5 5.87139 -9.3359 2.0746 0 0 0 
839 4 8.28239 -13.1949 2.0746 0 0 0 
840 4 10.7024 -13.1179 2.0746 0 0 0 
464 2 1.1791 -9.8029 6.2238 0 0 0 
467 1 1.8701 -8.5739 6.2238 0 0 0 
469 1 1.91909 -11.0089 6.2238 0 0 0 
470 1 1.1661 -7.3619 6.2238 0 0 0 
473 1 1.2611 -12.2479 6.2238 0 0 0 
475 4 2.8941 -8.5359 6.2238 0 0 0 
477 4 2.9431 -11.0069 6.2238 0 0 0 
478 4 1.67309 -6.4739 6.2238 0 0 0 
483 4 1.8001 -13.1179 6.2238 0 0 0 
485 2 1.1791 -9.8029 10.373 0 0 0 
488 1 1.8701 -8.5739 10.373 0 0 0 
490 1 1.91909 -11.0089 10.373 0 0 0 
491 1 1.1661 -7.3619 10.373 0 0 0 
494 1 1.2611 -12.2479 10.373 0 0 0 
496 4 2.8941 -8.5359 10.373 0 0 0 
498 4 2.9431 -11.0069 10.373 0 0 0 
499 4 1.67309 -6.4739 10.373 0 0 0 
504 4 1.8001 -13.1179 10.373 0 0 0 
841 2 8.6484 -9.8219 6.2238 0 0 0 
842 2 10.0814 -9.8029 6.2238 0 0 0 
843 2 7.93239 -8.5849 6.2238 0 0 0 
844 1 8.0234 -11.0959 6.2238 0 0 0 
845 1 10.7724 -8.5739 6.2238 0 0 0 
846 1 8.66639 -7.3739 6.2238 0 0 0 
847 1 10.8214 -11.0089 6.2238 0 0 0 
848 1 10.0684 -7.3619 6.2238 0 0 0 
849 3 6.4524 -8.4179 6.2238 0 0 0 
850 1 8.76239 -12.2919 6.2238 0 0 0 
851 1 10.1634 -12.2479 6.2238 0 0 0 
852 4 7.01039 -11.2069 6.2238 0 0 0 
853 4 11.7964 -8.5359 6.2238 0 0 0 
854 4 8.19139 -6.4659 6.2238 0 0 0 
855 4 11.8454 -11.0069 6.2238 0 0 0 
856 4 10.5754 -6.4739 6.2238 0 0 0 
857 5 6.14039 -7.8599 7.1098 0 0 0 
858 5 6.14039 -7.8599 5.3378 0 0 0 
859 5 5.87139 -9.3359 6.2238 0 0 0 
860 4 8.28239 -13.1949 6.2238 0 0 0 
861 4 10.7024 -13.1179 6.2238 0 0 0 
862 2 8.6484 -9.8219 10.373 0 0 0 
863 2 10.0814 -9.8029 10.373 0 0 0 
864 2 7.93239 -8.5849 10.373 0 0 0 
865 1 8.0234 -11.0959 10.373 0 0 0 
866 1 10.7724 -8.5739 10.373 0 0 0 
867 1 8.66639 -7.3739 10.373 0 0 0 
868 1 10.8214 -11.0089 10.373 0 0 0 
869 1 10.0684 -7.3619 10.373 0 0 0 
870 3 6.4524 -8.4179 10.373 0 0 0 
871 1 8.76239 -12.2919 10.373 0 0 0 
872 1 10.1634 -12.2479 10.373 0 0 0 
873 4 7.01039 -11.2069 10.373 0 0 0 
874 4 11.7964 -8.5359 10.373 0 0 0 
875 4 8.19139 -6.4659 10.373 0 0 0 
876 4 11.8454 -11.0069 10.373 0 0 0 
877 4 10.5754 -6.4739 10.373 0 0 0 
878 5 6.14039 -7.8599 11.259 0 0 0 
879 5 6.14039 -7.8599 9.487 0 0 0 
880 5 5.87139 -9.3359 10.373 0 0 0 
881 4 8.28239 -13.1949 10.373 0 0 0 
882 4 10.7024 -13.1179 10.373 0 0 0 
506 2 1.1791 -0.201 -10.373 0 0 0 
509 1 1.8701 1.028 -10.373 0 0 0 
511 1 1.91909 -1.407 -10.373 0 0 0 
512 1 1.1661 2.24 -10.373 0 0 0 
515 1 1.2611 -2.646 -10.373 0 0 0 
517 4 2.8941 1.066 -10.373 0 0 0 
519 4 2.9431 -1.405 -10.373 0 0 0 
520 4 1.67309 3.128 -10.373 0 0 0 
525 4 1.8001 -3.516 -10.373 0 0 0 
527 2 1.1791 -0.201 -6.2238 0 0 0 
530 1 1.8701 1.028 -6.2238 0 0 0 
532 1 1.91909 -1.407 -6.2238 0 0 0 
533 1 1.1661 2.24 -6.2238 0 0 0 
536 1 1.2611 -2.646 -6.2238 0 0 0 
538 4 2.8941 1.066 -6.2238 0 0 0 
540 4 2.9431 -1.405 -6.2238 0 0 0 
541 4 1.67309 3.128 -6.2238 0 0 0 
546 4 1.8001 -3.516 -6.2238 0 0 0 
883 2 8.6484 -0.22 -10.373 0 0 0 
884 2 10.0814 -0.201 -10.373 0 0 0 
885 2 7.93239 1.017 -10.373 0 0 0 
886 1 8.0234 -1.494 -10.373 0 0 0 
887 1 10.7724 1.028 -10.373 0 0 0 
888 1 8.66639 2.228 -10.373 0 0 0 
889 1 10.8214 -1.407 -10.373 0 0 0 
890 1 10.0684 2.24 -10.373 0 0 0 
891 3 6.4524 1.184 -10.373 0 0 0 
892 1 8.76239 -2.69 -10.373 0 0 0 
893 1 10.1634 -2.646 -10.373 0 0 0 
894 4 7.01039 -1.605 -10.373 0 0 0 
895 4 11.7964 1.066 -10.373 0 0 0 
896 4 8.19139 3.136 -10.373 0 0 0 
897 4 11.8454 -1.405 -10.373 0 0 0 
898 4 10.5754 3.128 -10.373 0 0 0 
899 5 6.14039 1.742 -9.487 0 0 0 
900 5 6.14039 1.742 -11.259 0 0 0 
901 5 5.87139 0.266 -10.373 0 0 0 
902 4 8.28239 -3.593 -10.373 0 0 0 
903 4 10.7024 -3.516 -10.373 0 0 0 
904 2 8.6484 -0.22 -6.2238 0 0 0 
905 2 10.0814 -0.201 -6.2238 0 0 0 
906 2 7.93239 1.017 -6.2238 0 0 0 
907 1 8.0234 -1.494 -6.2238 0 0 0 
908 1 10.7724 1.028 -6.2238 0 0 0 