ITEM: TIMESTEP
0
ITEM: NUMBER OF ATOMS
500
ITEM: BOX BOUNDS pp pp pp
0.0000000000000000e+00 7.4690079109286076e+00
0.0000000000000000e+00 7.4690079109286076e+00
0.0000000000000000e+00 7.4690079109286076e+00
ITEM: ATOMS id type xu yu zu 
450 1 3.7345 3.7345 5.97521 
451 1 3.7345 2.9876 6.72211 
452 1 2.9876 3.7345 6.72211 
453 1 4.4814 2.9876 5.97521 
454 1 5.22831 3.7345 5.97521 
455 1 5.22831 2.9876 6.72211 
456 1 4.4814 3.7345 6.72211 
457 1 5.97521 2.9876 5.97521 
458 1 6.72211 3.7345 5.97521 
459 1 6.72211 2.9876 6.72211 
462 1 0.746901 5.22831 5.97521 
463 1 0.746901 4.4814 6.72211 
464 1 0 5.22831 6.72211 
465 1 1.4938 4.4814 5.97521 
466 1 2.2407 5.22831 5.97521 
467 1 2.2407 4.4814 6.72211 
468 1 1.4938 5.22831 6.72211 
469 1 2.9876 4.4814 5.97521 
470 1 3.7345 5.22831 5.97521 
472 1 2.9876 5.22831 6.72211 
475 1 5.22831 4.4814 6.72211 
476 1 4.4814 5.22831 6.72211 
477 1 5.97521 4.4814 5.97521 
478 1 6.72211 5.22831 5.97521 
479 1 6.72211 4.4814 6.72211 
480 1 5.97521 5.22831 6.72211 
481 1 0 5.97521 5.97521 
482 1 0.746901 6.72211 5.97521 
484 1 0 6.72211 6.72211 
488 1 1.4938 6.72211 6.72211 
489 1 2.9876 5.97521 5.97521 
490 1 3.7345 6.72211 5.97521 
491 1 3.7345 5.97521 6.72211 
492 1 2.9876 6.72211 6.72211 
493 1 4.4814 5.97521 5.97521 
494 1 5.22831 6.72211 5.97521 
496 1 4.4814 6.72211 6.72211 
497 1 5.97521 5.97521 5.97521 
499 1 6.72211 5.97521 6.72211 
500 1 5.97521 6.72211 6.72211 
385 1 1.4938 5.97521 4.4814 
386 1 2.2407 6.72211 4.4814 
387 1 2.2407 5.97521 5.22831 
388 1 1.4938 6.72211 5.22831 
389 1 2.9876 5.97521 4.4814 
390 1 3.7345 6.72211 4.4814 
391 1 3.7345 5.97521 5.22831 
392 1 2.9876 6.72211 5.22831 
393 1 4.4814 5.97521 4.4814 
394 1 5.22831 6.72211 4.4814 
396 1 4.4814 6.72211 5.22831 
397 1 5.97521 5.97521 4.4814 
398 1 6.72211 6.72211 4.4814 
399 1 6.72211 5.97521 5.22831 
400 1 5.97521 6.72211 5.22831 
401 1 0 0 5.97521 
402 1 0.746901 0.746901 5.97521 
403 1 0.746901 0 6.72211 
404 1 0 0.746901 6.72211 
405 1 1.4938 0 5.97521 
406 1 2.2407 0.746901 5.97521 
407 1 2.2407 0 6.72211 
410 1 3.7345 0.746901 5.97521 
413 1 4.4814 0 5.97521 
414 1 5.22831 0.746901 5.97521 
415 1 5.22831 0 6.72211 
417 1 5.97521 0 5.97521 
418 1 6.72211 0.746901 5.97521 
419 1 6.72211 0 6.72211 
420 1 5.97521 0.746901 6.72211 
421 1 0 1.4938 5.97521 
422 1 0.746901 2.2407 5.97521 
423 1 0.746901 1.4938 6.72211 
424 1 0 2.2407 6.72211 
426 1 2.2407 2.2407 5.97521 
427 1 2.2407 1.4938 6.72211 
428 1 1.4938 2.2407 6.72211 
429 1 2.9876 1.4938 5.97521 
430 1 3.7345 2.2407 5.97521 
431 1 3.7345 1.4938 6.72211 
432 1 2.9876 2.2407 6.72211 
433 1 4.4814 1.4938 5.97521 
434 1 5.22831 2.2407 5.97521 
435 1 5.22831 1.4938 6.72211 
436 1 4.4814 2.2407 6.72211 
437 1 5.97521 1.4938 5.97521 
438 1 6.72211 2.2407 5.97521 
440 1 5.97521 2.2407 6.72211 
442 1 0.746901 3.7345 5.97521 
443 1 0.746901 2.9876 6.72211 
444 1 0 3.7345 6.72211 
445 1 1.4938 2.9876 5.97521 
446 1 2.2407 3.7345 5.97521 
321 1 0 1.4938 4.4814 
322 1 0.746901 2.2407 4.4814 
323 1 0.746901 1.4938 5.22831 
324 1 0 2.2407 5.22831 
325 1 1.4938 1.4938 4.4814 
326 1 2.2407 2.2407 4.4814 
327 1 2.2407 1.4938 5.22831 
328 1 1.4938 2.2407 5.22831 
329 1 2.9876 1.4938 4.4814 
330 1 3.7345 2.2407 4.4814 
331 1 3.7345 1.4938 5.22831 
332 1 2.9876 2.2407 5.22831 
333 1 4.4814 1.4938 4.4814 
334 1 5.22831 2.2407 4.4814 
335 1 5.22831 1.4938 5.22831 
337 1 5.97521 1.4938 4.4814 
338 1 6.72211 2.2407 4.4814 
339 1 6.72211 1.4938 5.22831 
343 1 0.746901 2.9876 5.22831 
344 1 0 3.7345 5.22831 
345 1 1.4938 2.9876 4.4814 
349 1 2.9876 2.9876 4.4814 
350 1 3.7345 3.7345 4.4814 
351 1 3.7345 2.9876 5.22831 
352 1 2.9876 3.7345 5.22831 
353 1 4.4814 2.9876 4.4814 
354 1 5.22831 3.7345 4.4814 
355 1 5.22831 2.9876 5.22831 
356 1 4.4814 3.7345 5.22831 
357 1 5.97521 2.9876 4.4814 
358 1 6.72211 3.7345 4.4814 
360 1 5.97521 3.7345 5.22831 
361 1 0 4.4814 4.4814 
363 1 0.746901 4.4814 5.22831 
366 1 2.2407 5.22831 4.4814 
368 1 1.4938 5.22831 5.22831 
369 1 2.9876 4.4814 4.4814 
370 1 3.7345 5.22831 4.4814 
371 1 3.7345 4.4814 5.22831 
372 1 2.9876 5.22831 5.22831 
373 1 4.4814 4.4814 4.4814 
374 1 5.22831 5.22831 4.4814 
375 1 5.22831 4.4814 5.22831 
376 1 4.4814 5.22831 5.22831 
377 1 5.97521 4.4814 4.4814 
378 1 6.72211 5.22831 4.4814 
379 1 6.72211 4.4814 5.22831 
380 1 5.97521 5.22831 5.22831 
382 1 0.746901 6.72211 4.4814 
383 1 0.746901 5.97521 5.22831 
384 1 0 6.72211 5.22831 
257 1 5.97521 2.9876 2.9876 
258 1 6.72211 3.7345 2.9876 
259 1 6.72211 2.9876 3.7345 
260 1 5.97521 3.7345 3.7345 
261 1 0 4.4814 2.9876 
262 1 0.746901 5.22831 2.9876 
263 1 0.746901 4.4814 3.7345 
265 1 1.4938 4.4814 2.9876 
266 1 2.2407 5.22831 2.9876 
268 1 1.4938 5.22831 3.7345 
270 1 3.7345 5.22831 2.9876 
271 1 3.7345 4.4814 3.7345 
272 1 2.9876 5.22831 3.7345 
274 1 5.22831 5.22831 2.9876 
275 1 5.22831 4.4814 3.7345 
277 1 5.97521 4.4814 2.9876 
278 1 6.72211 5.22831 2.9876 
279 1 6.72211 4.4814 3.7345 
280 1 5.97521 5.22831 3.7345 
281 1 0 5.97521 2.9876 
284 1 0 6.72211 3.7345 
285 1 1.4938 5.97521 2.9876 
286 1 2.2407 6.72211 2.9876 
287 1 2.2407 5.97521 3.7345 
290 1 3.7345 6.72211 2.9876 
291 1 3.7345 5.97521 3.7345 
292 1 2.9876 6.72211 3.7345 
293 1 4.4814 5.97521 2.9876 
295 1 5.22831 5.97521 3.7345 
296 1 4.4814 6.72211 3.7345 
297 1 5.97521 5.97521 2.9876 
298 1 6.72211 6.72211 2.9876 
299 1 6.72211 5.97521 3.7345 
301 1 0 0 4.4814 
303 1 0.746901 0 5.22831 
304 1 0 0.746901 5.22831 
305 1 1.4938 0 4.4814 
306 1 2.2407 0.746901 4.4814 
308 1 1.4938 0.746901 5.22831 
310 1 3.7345 0.746901 4.4814 
311 1 3.7345 0 5.22831 
312 1 2.9876 0.746901 5.22831 
313 1 4.4814 0 4.4814 
314 1 5.22831 0.746901 4.4814 
315 1 5.22831 0 5.22831 
316 1 4.4814 0.746901 5.22831 
317 1 5.97521 0 4.4814 
318 1 6.72211 0.746901 4.4814 
319 1 6.72211 0 5.22831 
193 1 4.4814 5.97521 1.4938 
194 1 5.22831 6.72211 1.4938 
195 1 5.22831 5.97521 2.2407 
198 1 6.72211 6.72211 1.4938 
199 1 6.72211 5.97521 2.2407 
200 1 5.97521 6.72211 2.2407 
201 1 0 0 2.9876 
202 1 0.746901 0.746901 2.9876 
204 1 0 0.746901 3.7345 
205 1 1.4938 0 2.9876 
207 1 2.2407 0 3.7345 
208 1 1.4938 0.746901 3.7345 
210 1 3.7345 0.746901 2.9876 
211 1 3.7345 0 3.7345 
212 1 2.9876 0.746901 3.7345 
214 1 5.22831 0.746901 2.9876 
216 1 4.4814 0.746901 3.7345 
217 1 5.97521 0 2.9876 
219 1 6.72211 0 3.7345 
220 1 5.97521 0.746901 3.7345 
221 1 0 1.4938 2.9876 
222 1 0.746901 2.2407 2.9876 
225 1 1.4938 1.4938 2.9876 
226 1 2.2407 2.2407 2.9876 
228 1 1.4938 2.2407 3.7345 
229 1 2.9876 1.4938 2.9876 
230 1 3.7345 2.2407 2.9876 
231 1 3.7345 1.4938 3.7345 
232 1 2.9876 2.2407 3.7345 
233 1 4.4814 1.4938 2.9876 
234 1 5.22831 2.2407 2.9876 
235 1 5.22831 1.4938 3.7345 
236 1 4.4814 2.2407 3.7345 
237 1 5.97521 1.4938 2.9876 
238 1 6.72211 2.2407 2.9876 
239 1 6.72211 1.4938 3.7345 
241 1 0 2.9876 2.9876 
242 1 0.746901 3.7345 2.9876 
244 1 0 3.7345 3.7345 
245 1 1.4938 2.9876 2.9876 
246 1 2.2407 3.7345 2.9876 
247 1 2.2407 2.9876 3.7345 
248 1 1.4938 3.7345 3.7345 
249 1 2.9876 2.9876 2.9876 
251 1 3.7345 2.9876 3.7345 
252 1 2.9876 3.7345 3.7345 
253 1 4.4814 2.9876 2.9876 
254 1 5.22831 3.7345 2.9876 
255 1 5.22831 2.9876 3.7345 
256 1 4.4814 3.7345 3.7345 
129 1 2.9876 1.4938 1.4938 
131 1 3.7345 1.4938 2.2407 
133 1 4.4814 1.4938 1.4938 
134 1 5.22831 2.2407 1.4938 
136 1 4.4814 2.2407 2.2407 
137 1 5.97521 1.4938 1.4938 
139 1 6.72211 1.4938 2.2407 
142 1 0.746901 3.7345 1.4938 
143 1 0.746901 2.9876 2.2407 
144 1 0 3.7345 2.2407 
145 1 1.4938 2.9876 1.4938 
146 1 2.2407 3.7345 1.4938 
150 1 3.7345 3.7345 1.4938 
151 1 3.7345 2.9876 2.2407 
152 1 2.9876 3.7345 2.2407 
156 1 4.4814 3.7345 2.2407 
158 1 6.72211 3.7345 1.4938 
160 1 5.97521 3.7345 2.2407 
161 1 0 4.4814 1.4938 
162 1 0.746901 5.22831 1.4938 
163 1 0.746901 4.4814 2.2407 
164 1 0 5.22831 2.2407 
165 1 1.4938 4.4814 1.4938 
166 1 2.2407 5.22831 1.4938 
167 1 2.2407 4.4814 2.2407 
168 1 1.4938 5.22831 2.2407 
170 1 3.7345 5.22831 1.4938 
171 1 3.7345 4.4814 2.2407 
172 1 2.9876 5.22831 2.2407 
173 1 4.4814 4.4814 1.4938 
175 1 5.22831 4.4814 2.2407 
176 1 4.4814 5.22831 2.2407 
177 1 5.97521 4.4814 1.4938 
178 1 6.72211 5.22831 1.4938 
179 1 6.72211 4.4814 2.2407 
180 1 5.97521 5.22831 2.2407 
181 1 0 5.97521 1.4938 
182 1 0.746901 6.72211 1.4938 
184 1 0 6.72211 2.2407 
185 1 1.4938 5.97521 1.4938 
187 1 2.2407 5.97521 2.2407 
189 1 2.9876 5.97521 1.4938 
190 1 3.7345 6.72211 1.4938 
191 1 3.7345 5.97521 2.2407 
192 1 2.9876 6.72211 2.2407 
65 1 1.4938 4.4814 0 
67 1 2.2407 4.4814 0.746901 
69 1 2.9876 4.4814 0 
70 1 3.7345 5.22831 0 
71 1 3.7345 4.4814 0.746901 
72 1 2.9876 5.22831 0.746901 
75 1 5.22831 4.4814 0.746901 
76 1 4.4814 5.22831 0.746901 
77 1 5.97521 4.4814 0 
78 1 6.72211 5.22831 0 
79 1 6.72211 4.4814 0.746901 
80 1 5.97521 5.22831 0.746901 
81 1 0 5.97521 0 
83 1 0.746901 5.97521 0.746901 
84 1 0 6.72211 0.746901 
85 1 1.4938 5.97521 0 
87 1 2.2407 5.97521 0.746901 
88 1 1.4938 6.72211 0.746901 
89 1 2.9876 5.97521 0 
90 1 3.7345 6.72211 0 
91 1 3.7345 5.97521 0.746901 
92 1 2.9876 6.72211 0.746901 
93 1 4.4814 5.97521 0 
94 1 5.22831 6.72211 0 
96 1 4.4814 6.72211 0.746901 
99 1 6.72211 5.97521 0.746901 
100 1 5.97521 6.72211 0.746901 
101 1 0 0 1.4938 
102 1 0.746901 0.746901 1.4938 
103 1 0.746901 0 2.2407 
105 1 1.4938 0 1.4938 
106 1 2.2407 0.746901 1.4938 
107 1 2.2407 0 2.2407 
108 1 1.4938 0.746901 2.2407 
109 1 2.9876 0 1.4938 
110 1 3.7345 0.746901 1.4938 
111 1 3.7345 0 2.2407 
112 1 2.9876 0.746901 2.2407 
113 1 4.4814 0 1.4938 
114 1 5.22831 0.746901 1.4938 
116 1 4.4814 0.746901 2.2407 
117 1 5.97521 0 1.4938 
118 1 6.72211 0.746901 1.4938 
119 1 6.72211 0 2.2407 
121 1 0 1.4938 1.4938 
123 1 0.746901 1.4938 2.2407 
124 1 0 2.2407 2.2407 
125 1 1.4938 1.4938 1.4938 
126 1 2.2407 2.2407 1.4938 
127 1 2.2407 1.4938 2.2407 
128 1 1.4938 2.2407 2.2407 
1 1 0 0 0 
2 1 0.746901 0.746901 0 
3 1 0.746901 0 0.746901 
4 1 0 0.746901 0.746901 
5 1 1.4938 0 0 
8 1 1.4938 0.746901 0.746901 
9 1 2.9876 0 0 
11 1 3.7345 0 0.746901 
12 1 2.9876 0.746901 0.746901 
14 1 5.22831 0.746901 0 
15 1 5.22831 0 0.746901 
16 1 4.4814 0.746901 0.746901 
17 1 5.97521 0 0 
18 1 6.72211 0.746901 0 
19 1 6.72211 0 0.746901 
20 1 5.97521 0.746901 0.746901 
21 1 0 1.4938 0 
22 1 0.746901 2.2407 0 
23 1 0.746901 1.4938 0.746901 
24 1 0 2.2407 0.746901 
25 1 1.4938 1.4938 0 
26 1 2.2407 2.2407 0 
27 1 2.2407 1.4938 0.746901 
28 1 1.4938 2.2407 0.746901 
30 1 3.7345 2.2407 0 
31 1 3.7345 1.4938 0.746901 
33 1 4.4814 1.4938 0 
35 1 5.22831 1.4938 0.746901 
36 1 4.4814 2.2407 0.746901 
37 1 5.97521 1.4938 0 
38 1 6.72211 2.2407 0 
42 1 0.746901 3.7345 0 
43 1 0.746901 2.9876 0.746901 
44 1 0 3.7345 0.746901 
45 1 1.4938 2.9876 0 
46 1 2.2407 3.7345 0 
47 1 2.2407 2.9876 0.746901 
48 1 1.4938 3.7345 0.746901 
50 1 3.7345 3.7345 0 
51 1 3.7345 2.9876 0.746901 
52 1 2.9876 3.7345 0.746901 
53 1 4.4814 2.9876 0 
54 1 5.22831 3.7345 0 
55 1 5.22831 2.9876 0.746901 
56 1 4.4814 3.7345 0.746901 
57 1 5.97521 2.9876 0 
58 1 6.72211 3.7345 0 
60 1 5.97521 3.7345 0.746901 
61 1 0 4.4814 0 
62 1 0.746901 5.22831 0 
63 1 0.746901 4.4814 0.746901 
64 1 0 5.22831 0.746901 
449 2 2.9876 2.9876 5.97521 
460 2 5.97521 3.7345 6.72211 
461 2 0 4.4814 5.97521 
471 2 3.7345 4.4814 6.72211 
473 2 4.4814 4.4814 5.97521 
474 2 5.22831 5.22831 5.97521 
483 2 0.746901 5.97521 6.72211 
485 2 1.4938 5.97521 5.97521 
486 2 2.2407 6.72211 5.97521 
487 2 2.2407 5.97521 6.72211 
495 2 5.22831 5.97521 6.72211 
498 2 6.72211 6.72211 5.97521 
395 2 5.22831 5.97521 5.22831 
408 2 1.4938 0.746901 6.72211 
409 2 2.9876 0 5.97521 
411 2 3.7345 0 6.72211 
412 2 2.9876 0.746901 6.72211 
416 2 4.4814 0.746901 6.72211 
425 2 1.4938 1.4938 5.97521 
439 2 6.72211 1.4938 6.72211 
441 2 0 2.9876 5.97521 
447 2 2.2407 2.9876 6.72211 
448 2 1.4938 3.7345 6.72211 
336 2 4.4814 2.2407 5.22831 
340 2 5.97521 2.2407 5.22831 
341 2 0 2.9876 4.4814 
342 2 0.746901 3.7345 4.4814 
346 2 2.2407 3.7345 4.4814 
347 2 2.2407 2.9876 5.22831 
348 2 1.4938 3.7345 5.22831 
359 2 6.72211 2.9876 5.22831 
362 2 0.746901 5.22831 4.4814 
364 2 0 5.22831 5.22831 
365 2 1.4938 4.4814 4.4814 
367 2 2.2407 4.4814 5.22831 
381 2 0 5.97521 4.4814 
264 2 0 5.22831 3.7345 
267 2 2.2407 4.4814 3.7345 
269 2 2.9876 4.4814 2.9876 
273 2 4.4814 4.4814 2.9876 
276 2 4.4814 5.22831 3.7345 
282 2 0.746901 6.72211 2.9876 
283 2 0.746901 5.97521 3.7345 
288 2 1.4938 6.72211 3.7345 
289 2 2.9876 5.97521 2.9876 
294 2 5.22831 6.72211 2.9876 
300 2 5.97521 6.72211 3.7345 
302 2 0.746901 0.746901 4.4814 
307 2 2.2407 0 5.22831 
309 2 2.9876 0 4.4814 
320 2 5.97521 0.746901 5.22831 
196 2 4.4814 6.72211 2.2407 
197 2 5.97521 5.97521 1.4938 
203 2 0.746901 0 3.7345 
206 2 2.2407 0.746901 2.9876 
209 2 2.9876 0 2.9876 
213 2 4.4814 0 2.9876 
215 2 5.22831 0 3.7345 
218 2 6.72211 0.746901 2.9876 
223 2 0.746901 1.4938 3.7345 
224 2 0 2.2407 3.7345 
227 2 2.2407 1.4938 3.7345 
240 2 5.97521 2.2407 3.7345 
243 2 0.746901 2.9876 3.7345 
250 2 3.7345 3.7345 2.9876 
130 2 3.7345 2.2407 1.4938 
132 2 2.9876 2.2407 2.2407 
135 2 5.22831 1.4938 2.2407 
138 2 6.72211 2.2407 1.4938 
140 2 5.97521 2.2407 2.2407 
141 2 0 2.9876 1.4938 
147 2 2.2407 2.9876 2.2407 
148 2 1.4938 3.7345 2.2407 
149 2 2.9876 2.9876 1.4938 
153 2 4.4814 2.9876 1.4938 
154 2 5.22831 3.7345 1.4938 
155 2 5.22831 2.9876 2.2407 
157 2 5.97521 2.9876 1.4938 
159 2 6.72211 2.9876 2.2407 
169 2 2.9876 4.4814 1.4938 
174 2 5.22831 5.22831 1.4938 
183 2 0.746901 5.97521 2.2407 
186 2 2.2407 6.72211 1.4938 
188 2 1.4938 6.72211 2.2407 
66 2 2.2407 5.22831 0 
68 2 1.4938 5.22831 0.746901 
73 2 4.4814 4.4814 0 
74 2 5.22831 5.22831 0 
82 2 0.746901 6.72211 0 
86 2 2.2407 6.72211 0 
95 2 5.22831 5.97521 0.746901 
97 2 5.97521 5.97521 0 
98 2 6.72211 6.72211 0 
104 2 0 0.746901 2.2407 
115 2 5.22831 0 2.2407 
120 2 5.97521 0.746901 2.2407 
122 2 0.746901 2.2407 1.4938 
6 2 2.2407 0.746901 0 
7 2 2.2407 0 0.746901 
10 2 3.7345 0.746901 0 
13 2 4.4814 0 0 
29 2 2.9876 1.4938 0 
32 2 2.9876 2.2407 0.746901 
34 2 5.22831 2.2407 0 
39 2 6.72211 1.4938 0.746901 
40 2 5.97521 2.2407 0.746901 
41 2 0 2.9876 0 
49 2 2.9876 2.9876 0 
59 2 6.72211 2.9876 0.746901 
ITEM: TIMESTEP
10
ITEM: NUMBER OF ATOMS
500
ITEM: BOX BOUNDS pp pp pp
0.0000000000000000e+00 7.4690079109286076e+00
0.0000000000000000e+00 7.4690079109286076e+00
0.0000000000000000e+00 7.4690079109286076e+00
ITEM: ATOMS id type xu yu zu 
450 1 3.71994 3.73045 5.94901 
451 1 3.7229 2.97008 6.73392 
452 1 2.99378 3.74852 6.71935 
453 1 4.45882 3.01622 5.99898 
454 1 5.2604 3.74218 5.98426 
455 1 5.24781 2.97789 6.7309 
456 1 4.48011 3.75125 6.69963 
457 1 6.0327 3.05277 5.95072 
458 1 6.71255 3.70467 5.98275 
459 1 6.71613 3.02779 6.66466 
462 1 0.786392 5.22149 5.91223 
463 1 0.757203 4.49216 6.71371 
464 1 -0.00672536 5.28661 6.706 
465 1 1.49673 4.46325 5.93578 
466 1 2.24151 5.21546 5.97697 
467 1 2.2253 4.409 6.71297 
468 1 1.4923 5.26268 6.72911 
469 1 2.99794 4.50025 5.97184 
470 1 3.76977 5.18287 5.99453 
472 1 2.9525 5.1651 6.71951 
475 1 5.19222 4.50155 6.68101 
476 1 4.46159 5.21298 6.76826 
477 1 5.94627 4.48621 6.00278 
478 1 6.72131 5.22094 5.9847 
479 1 6.73938 4.48519 6.73508 
480 1 6.02233 5.2129 6.69917 
481 1 0.00720023 5.94277 5.9658 
482 1 0.768276 6.72062 5.95026 
484 1 0.0127435 6.70082 6.73428 
488 1 1.51792 6.71309 6.69051 
489 1 2.99973 5.94551 5.98423 
490 1 3.72587 6.63363 5.96415 
491 1 3.75713 5.99098 6.7607 
492 1 2.9943 6.75244 6.73495 
493 1 4.49903 5.97384 5.97172 
494 1 5.25082 6.69958 5.97774 
496 1 4.49616 6.69768 6.71539 
497 1 5.94781 5.98268 5.91656 
499 1 6.746 5.99861 6.71181 
500 1 5.96928 6.73448 6.74554 
385 1 1.52621 5.96671 4.47031 
386 1 2.26425 6.68897 4.48366 
387 1 2.28797 5.99664 5.25361 
388 1 1.51034 6.70295 5.23423 
389 1 3.01437 5.93843 4.4446 
390 1 3.76164 6.72029 4.44239 
391 1 3.75502 5.98797 5.19859 
392 1 3.03522 6.74236 5.21378 
393 1 4.4249 5.97611 4.4631 
394 1 5.2565 6.72689 4.43423 
396 1 4.48723 6.74816 5.28185 
397 1 5.96032 5.97224 4.48002 
398 1 6.73595 6.70123 4.50583 
399 1 6.7451 6.01497 5.2578 
400 1 5.98758 6.74699 5.22149 
401 1 -0.015868 0.0154213 5.97635 
402 1 0.792735 0.771686 5.9765 
403 1 0.745852 0.00952279 6.74114 
404 1 0.0189546 0.719644 6.72726 
405 1 1.47075 0.0436603 5.95238 
406 1 2.22099 0.735529 5.98541 
407 1 2.22382 0.0135093 6.71358 
410 1 3.6937 0.783762 5.97589 
413 1 4.46345 -0.0272903 6.03344 
414 1 5.26019 0.77726 5.94921 
415 1 5.25013 -0.0295088 6.73131 
417 1 6.013 0.0429122 5.95967 
418 1 6.75915 0.782521 5.98789 
419 1 6.67903 0.00924349 6.74338 
420 1 5.9568 0.749401 6.75329 
421 1 0.0211665 1.51539 5.98238 
422 1 0.739574 2.29223 6.03013 
423 1 0.76091 1.5036 6.69189 
424 1 0.0112018 2.24537 6.69565 
426 1 2.23012 2.23237 5.94453 
427 1 2.23781 1.4403 6.73535 
428 1 1.5074 2.20677 6.75542 
429 1 2.97275 1.47965 5.95429 
430 1 3.7617 2.21843 5.98949 
431 1 3.67691 1.51736 6.7192 
432 1 2.99085 2.29792 6.74233 
433 1 4.47127 1.39399 5.96804 
434 1 5.19609 2.22711 6.00621 
435 1 5.21743 1.46705 6.72258 
436 1 4.46674 2.22589 6.7447 
437 1 5.97792 1.48873 5.96966 
438 1 6.70215 2.23148 5.96973 
440 1 5.97205 2.18512 6.74991 
442 1 0.717453 3.71198 6.00194 
443 1 0.785532 3.03628 6.7564 
444 1 0.00186222 3.78713 6.76155 
445 1 1.50726 2.96018 5.98519 
446 1 2.24778 3.78269 6.01919 
321 1 0.0356283 1.50886 4.46288 
322 1 0.752065 2.26567 4.51679 
323 1 0.748272 1.46154 5.25757 
324 1 0.00748446 2.24073 5.26938 
325 1 1.4768 1.49797 4.5222 
326 1 2.21968 2.25537 4.46502 
327 1 2.24562 1.47119 5.24172 
328 1 1.46531 2.20884 5.20789 
329 1 2.95409 1.51219 4.4774 
330 1 3.68477 2.25147 4.49096 
331 1 3.72336 1.44833 5.27541 
332 1 2.99826 2.25091 5.19405 
333 1 4.48178 1.5456 4.46753 
334 1 5.24819 2.21409 4.44542 
335 1 5.21441 1.46639 5.26022 
337 1 6.0199 1.46713 4.45163 
338 1 6.71244 2.26007 4.42712 
339 1 6.71623 1.52329 5.2472 
343 1 0.776841 3.0073 5.22683 
344 1 0.0169935 3.74469 5.22976 
345 1 1.41074 2.94125 4.44783 
349 1 2.95877 2.9535 4.48281 
350 1 3.76373 3.76853 4.53325 
351 1 3.74316 3.01899 5.23114 
352 1 3.03087 3.72188 5.23901 
353 1 4.50087 2.94791 4.46789 
354 1 5.22912 3.77584 4.47984 
355 1 5.2514 2.96844 5.26669 
356 1 4.49625 3.71398 5.21674 
357 1 5.91493 2.94408 4.46908 
358 1 6.70726 3.73522 4.45996 
360 1 5.98509 3.73283 5.23945 
361 1 -0.0508786 4.48224 4.45726 
363 1 0.736479 4.48994 5.22447 
366 1 2.22773 5.20573 4.49194 
368 1 1.51639 5.25054 5.2378 
369 1 2.96772 4.44706 4.4754 
370 1 3.75026 5.23718 4.46317 
371 1 3.72669 4.46721 5.20875 
372 1 2.95333 5.27384 5.18462 
373 1 4.47831 4.50614 4.49079 
374 1 5.23406 5.21879 4.49743 
375 1 5.21615 4.49115 5.25489 
376 1 4.50937 5.22993 5.22875 
377 1 6.04321 4.43491 4.52916 
378 1 6.68566 5.2125 4.54374 
379 1 6.70683 4.49017 5.22251 
380 1 5.97374 5.23912 5.23336 
382 1 0.774525 6.72263 4.50395 
383 1 0.682201 6.00118 5.22277 
384 1 -0.00880972 6.7192 5.213 
257 1 5.9636 3.05149 2.95761 
258 1 6.75627 3.71807 3.0141 
259 1 6.71013 2.96304 3.74042 
260 1 5.98406 3.69718 3.73698 
261 1 0.00464009 4.45826 3.02323 
262 1 0.760051 5.23857 2.96575 
263 1 0.726812 4.4951 3.76459 
265 1 1.49855 4.49115 3.00762 
266 1 2.22695 5.23988 3.00834 
268 1 1.47738 5.19863 3.6942 
270 1 3.71357 5.21147 2.98141 
271 1 3.7405 4.49264 3.71043 
272 1 2.96549 5.27159 3.70741 
274 1 5.23865 5.19381 3.01841 
275 1 5.18503 4.5216 3.77794 
277 1 5.95139 4.47822 3.01047 
278 1 6.78259 5.23311 2.97175 
279 1 6.73399 4.54065 3.74324 
280 1 5.97087 5.23936 3.78695 
281 1 -0.0179376 5.97955 2.9782 
284 1 0.00436726 6.70568 3.75401 
285 1 1.51351 5.99075 2.99573 
286 1 2.24799 6.67582 2.94358 
287 1 2.21549 5.98006 3.66998 
290 1 3.69051 6.72805 2.93262 
291 1 3.70321 6.00347 3.75193 
292 1 2.95817 6.70912 3.70124 
293 1 4.43409 6.01913 2.96686 
295 1 5.1645 5.95055 3.67867 
296 1 4.46623 6.69934 3.72129 
297 1 5.94955 5.97529 3.00849 
298 1 6.76899 6.74315 3.0194 
299 1 6.72157 5.97604 3.70342 
301 1 0.00267895 -0.017591 4.46061 
303 1 0.700763 0.0245804 5.24081 
304 1 -0.0265581 0.729124 5.21739 
305 1 1.52267 -0.0465006 4.51276 
306 1 2.2371 0.732119 4.46972 
308 1 1.50384 0.721965 5.1896 
310 1 3.72352 0.734617 4.47796 
311 1 3.70396 0.0108866 5.24634 
312 1 3.02541 0.769234 5.25354 
313 1 4.49787 0.0107463 4.46081 
314 1 5.21722 0.786154 4.48824 
315 1 5.24253 -0.0120808 5.25747 
316 1 4.51072 0.723302 5.20078 
317 1 5.97613 -0.0439641 4.43706 
318 1 6.73143 0.777871 4.47787 
319 1 6.73293 0.0232522 5.19313 
193 1 4.44382 6.02293 1.53146 
194 1 5.18183 6.73792 1.50186 
195 1 5.2095 5.9651 2.25442 
198 1 6.71881 6.70715 1.50174 
199 1 6.72942 5.9812 2.24848 
200 1 5.99835 6.71769 2.27502 
201 1 0.0241369 -0.00051082 2.96859 
202 1 0.792259 0.732108 2.96419 
204 1 -0.0232967 0.79736 3.72513 
205 1 1.48316 -0.00993508 2.98329 
207 1 2.26398 0.0425528 3.71715 
208 1 1.50341 0.752066 3.76915 
210 1 3.75874 0.764128 2.996 
211 1 3.7391 -0.0363641 3.73203 
212 1 3.01619 0.718603 3.72787 
214 1 5.1588 0.74407 3.04416 
216 1 4.5286 0.726736 3.74759 
217 1 5.97446 -0.0143529 2.98464 
219 1 6.72898 -0.0505591 3.76936 
220 1 5.96418 0.75084 3.73645 
221 1 0.0286913 1.46475 2.99862 
222 1 0.733175 2.24456 2.99407 
225 1 1.56027 1.51915 2.97969 
226 1 2.21516 2.27804 2.98077 
228 1 1.51121 2.18884 3.74987 
229 1 3.01279 1.47316 2.9531 
230 1 3.71921 2.28923 2.92271 
231 1 3.7086 1.5473 3.79401 
232 1 2.96204 2.22357 3.70357 
233 1 4.51091 1.45296 3.01376 
234 1 5.1937 2.26311 2.98049 
235 1 5.2342 1.53646 3.7286 
236 1 4.52085 2.23516 3.78802 
237 1 5.90024 1.4835 3.05022 
238 1 6.72038 2.22069 3.04558 
239 1 6.7362 1.46512 3.769 
241 1 0.0399875 2.99252 2.90753 
242 1 0.725186 3.72983 2.96776 
244 1 -0.0325813 3.75421 3.74421 
245 1 1.48981 2.97981 3.01839 
246 1 2.27898 3.73103 2.98694 
247 1 2.18626 2.95302 3.72731 
248 1 1.52007 3.77459 3.76227 
249 1 2.94912 3.03713 3.02759 
251 1 3.75128 2.99133 3.70952 
252 1 3.03836 3.75707 3.70866 
253 1 4.44384 2.94824 3.0092 
254 1 5.26918 3.75869 2.99752 
255 1 5.26209 2.96317 3.70593 
256 1 4.47391 3.72051 3.74728 
129 1 2.97907 1.52481 1.47524 
131 1 3.76911 1.50996 2.23055 
133 1 4.42402 1.49214 1.50409 
134 1 5.21879 2.22121 1.51435 
136 1 4.51265 2.20712 2.25431 
137 1 5.98157 1.48413 1.49522 
139 1 6.68456 1.48616 2.23441 
142 1 0.744241 3.74276 1.47239 
143 1 0.742191 3.01214 2.22076 
144 1 -0.0173805 3.74462 2.24641 
145 1 1.43585 2.98802 1.46549 
146 1 2.20609 3.76145 1.50559 
150 1 3.69901 3.70703 1.52555 
151 1 3.73827 2.99129 2.26445 
152 1 3.01696 3.6998 2.28174 
156 1 4.4842 3.72982 2.23406 
158 1 6.77976 3.76704 1.48497 
160 1 5.9863 3.74937 2.24892 
161 1 -0.00247264 4.50316 1.52492 
162 1 0.789637 5.19993 1.49524 
163 1 0.707491 4.47609 2.29764 
164 1 -0.0131379 5.23582 2.24263 
165 1 1.51019 4.47674 1.45078 
166 1 2.20008 5.26994 1.52755 
167 1 2.26556 4.45256 2.24345 
168 1 1.47045 5.20922 2.23534 
170 1 3.75375 5.20663 1.49366 
171 1 3.75068 4.51852 2.24903 
172 1 2.94005 5.24011 2.21442 
173 1 4.46717 4.46808 1.45895 
175 1 5.236 4.46127 2.23452 
176 1 4.48642 5.20241 2.22352 
177 1 6.01878 4.49537 1.4972 
178 1 6.70224 5.21553 1.48713 
179 1 6.75892 4.45385 2.21757 
180 1 5.92763 5.20041 2.28346 
181 1 -0.0572286 5.98485 1.52547 
182 1 0.754145 6.6942 1.48364 
184 1 -0.013692 6.74672 2.20925 
185 1 1.5231 6.03793 1.54475 
187 1 2.20179 5.9824 2.18089 
189 1 2.98067 6.02101 1.49745 
190 1 3.69969 6.69404 1.47523 
191 1 3.76282 6.00826 2.26066 
192 1 3.02396 6.76684 2.26453 
65 1 1.51475 4.52758 -0.0581854 
67 1 2.22437 4.53126 0.778347 
69 1 2.9763 4.45081 0.0243026 
70 1 3.68119 5.19831 -0.0227169 
71 1 3.74183 4.43433 0.760426 
72 1 3.00498 5.25227 0.775925 
75 1 5.25431 4.48632 0.74671 
76 1 4.46346 5.2379 0.715422 
77 1 5.99442 4.52594 -0.0183705 
78 1 6.71768 5.18832 -0.00568237 
79 1 6.78089 4.5384 0.737216 
80 1 5.98452 5.27576 0.736121 
81 1 0.0511282 5.97704 0.0212401 
83 1 0.76653 6.04581 0.810155 
84 1 0.0634825 6.70458 0.774383 
85 1 1.47677 6.01434 -0.0343404 
87 1 2.25724 5.97804 0.770307 
88 1 1.44715 6.77954 0.77065 
89 1 2.95168 6.01188 -0.0218394 
90 1 3.74521 6.75417 0.0376182 
91 1 3.73696 5.96942 0.742624 
92 1 3.02761 6.71488 0.776579 
93 1 4.48907 5.97993 -0.0232834 
94 1 5.19784 6.72267 0.00835122 
96 1 4.48706 6.70018 0.729881 
99 1 6.70719 6.01621 0.71676 
100 1 6.00696 6.76106 0.723299 
101 1 -0.00578574 0.031182 1.4931 
102 1 0.738403 0.757025 1.44555 
103 1 0.725136 -0.0510511 2.28179 
105 1 1.48052 0.0351597 1.50101 
106 1 2.21137 0.761565 1.48448 
107 1 2.26233 0.025787 2.27825 
108 1 1.49345 0.736624 2.23217 
109 1 2.95815 -0.0231248 1.4702 
110 1 3.75565 0.749127 1.47984 
111 1 3.72522 -0.0210885 2.22539 
112 1 3.0092 0.755504 2.26504 
113 1 4.41967 -0.0083527 1.47458 
114 1 5.20688 0.737621 1.42487 
116 1 4.48729 0.697946 2.26161 
117 1 5.94119 0.0254155 1.4908 
118 1 6.74203 0.798035 1.54362 
119 1 6.67604 0.00294389 2.24654 
121 1 0.0358805 1.4821 1.45813 
123 1 0.747296 1.49388 2.23928 
124 1 0.0189786 2.26009 2.25833 
125 1 1.46528 1.5232 1.55023 
126 1 2.22437 2.26009 1.49963 
127 1 2.29154 1.44075 2.23209 
128 1 1.45595 2.24628 2.25488 
1 1 0.0107859 0.0512878 -0.0379663 
2 1 0.749665 0.709595 0.0265935 
3 1 0.728571 -0.00619893 0.754435 
4 1 0.044317 0.722647 0.775631 
5 1 1.54686 -0.00906631 0.0207105 
8 1 1.4749 0.7363 0.744679 
9 1 3.01839 -0.0427237 0.0291371 
11 1 3.74047 -0.00915365 0.715701 
12 1 3.01811 0.764457 0.735633 
14 1 5.20056 0.66595 0.00109663 
15 1 5.26177 0.0115148 0.785609 
16 1 4.50362 0.743772 0.73019 
17 1 5.92514 -0.0136731 -0.0446285 
18 1 6.77194 0.686646 0.0017117 
19 1 6.73628 -0.0392897 0.713118 
20 1 6.01779 0.776695 0.716625 
21 1 0.0212784 1.47919 0.0294638 
22 1 0.766809 2.24574 0.00236791 
23 1 0.774583 1.50979 0.709286 
24 1 0.0026923 2.24936 0.743374 
25 1 1.49697 1.5172 -0.02069 
26 1 2.24976 2.24703 0.0170621 
27 1 2.20838 1.50075 0.781968 
28 1 1.4952 2.19998 0.758209 
30 1 3.78974 2.24514 0.0261403 
31 1 3.72447 1.52629 0.738396 
33 1 4.5091 1.45663 -0.0426861 
35 1 5.24975 1.51397 0.76397 
36 1 4.49958 2.27261 0.720286 
37 1 5.98254 1.48957 -0.00832596 
38 1 6.73471 2.27193 0.00948946 
42 1 0.75371 3.72712 0.0161078 
43 1 0.704418 3.00951 0.741791 
44 1 -0.0232921 3.71799 0.740914 
45 1 1.47861 2.94934 -0.0194856 
46 1 2.24418 3.75075 0.0102419 
47 1 2.23605 2.96748 0.734936 
48 1 1.57049 3.72045 0.776156 
50 1 3.77637 3.72384 -0.0487955 
51 1 3.68337 2.96897 0.757297 
52 1 2.99837 3.72706 0.807426 
53 1 4.4369 2.97017 -0.060642 
54 1 5.21733 3.7345 -0.0333532 
55 1 5.23117 2.96812 0.682015 
56 1 4.47832 3.69017 0.753338 
57 1 5.96573 2.98015 0.0222968 
58 1 6.72781 3.67901 -0.0769197 
60 1 5.99993 3.71405 0.746637 
61 1 0.0319028 4.48489 0.00772322 
62 1 0.766982 5.17364 -0.0308688 
63 1 0.750224 4.486 0.772207 
64 1 0.00574289 5.2196 0.756656 
449 2 2.99081 3.00622 5.96245 
460 2 5.95072 3.72748 6.74495 
461 2 0.0098611 4.44975 6.0049 
471 2 3.70371 4.4904 6.70189 
473 2 4.46703 4.49917 5.99696 
474 2 5.21838 5.21384 5.93406 
483 2 0.723216 5.9513 6.73584 
485 2 1.5207 5.97081 5.99033 
486 2 2.20727 6.73785 6.01609 
487 2 2.20885 6.0097 6.77887 
495 2 5.1777 5.96196 6.72947 
498 2 6.72044 6.76091 6.00367 
395 2 5.2659 5.99033 5.22409 
408 2 1.49254 0.760973 6.74398 
409 2 3.03078 -0.0413879 5.97984 
411 2 3.74527 0.0166898 6.69141 
412 2 2.96121 0.776013 6.70041 
416 2 4.50094 0.729415 6.64384 
425 2 1.52931 1.48505 5.9309 
439 2 6.72175 1.53182 6.73247 
441 2 -0.010901 2.99492 5.99314 
447 2 2.20569 2.98143 6.73072 
448 2 1.52869 3.74614 6.75426 
336 2 4.49622 2.20451 5.16396 
340 2 5.95485 2.27075 5.24855 
341 2 -0.0233367 3.01766 4.48909 
342 2 0.742344 3.72998 4.49152 
346 2 2.23849 3.74046 4.42796 
347 2 2.32312 3.01787 5.12649 
348 2 1.48186 3.6929 5.23807 
359 2 6.68766 2.93223 5.22839 
362 2 0.738288 5.23309 4.42544 
364 2 -0.0239641 5.25828 5.23391 
365 2 1.50914 4.48386 4.4445 
367 2 2.24922 4.49529 5.22045 
381 2 0.0136041 5.95794 4.47265 
264 2 0.022066 5.28034 3.73593 
267 2 2.21216 4.47423 3.70979 
269 2 2.96913 4.5131 2.98496 
273 2 4.46321 4.48239 3.00936 
276 2 4.47639 5.21025 3.70775 
282 2 0.758353 6.72973 2.97451 
283 2 0.74995 6.01482 3.72684 
288 2 1.50977 6.72727 3.73245 
289 2 2.95787 5.98658 2.96728 
294 2 5.23015 6.75468 2.98532 
300 2 5.91267 6.69644 3.72198 
302 2 0.72655 0.676582 4.50713 
307 2 2.28686 -0.0213835 5.21136 
309 2 3.00098 0.0169114 4.49376 
320 2 5.93868 0.725739 5.20837 
196 2 4.43097 6.72033 2.28567 
197 2 5.98479 5.98731 1.48561 
203 2 0.731028 0.0354476 3.70816 
206 2 2.25504 0.749821 3.01604 
209 2 3.02067 -0.0150966 2.91894 
213 2 4.45789 -0.0324407 3.00362 
215 2 5.23702 0.00559308 3.71445 
218 2 6.79281 0.766814 3.03216 
223 2 0.747702 1.47368 3.75382 
224 2 -0.0469717 2.21636 3.74113 
227 2 2.20853 1.52461 3.76542 
240 2 5.95968 2.28446 3.7312 
243 2 0.73275 2.95321 3.71475 
250 2 3.76773 3.7106 2.99789 
130 2 3.71374 2.18934 1.47399 
132 2 2.9454 2.20787 2.25898 
135 2 5.25733 1.51486 2.21838 
138 2 6.735 2.20511 1.45135 
140 2 5.95919 2.27635 2.27293 
141 2 0.0105506 2.96795 1.48716 
147 2 2.29027 2.97173 2.25048 
148 2 1.53043 3.76368 2.2218 
149 2 2.96645 2.955 1.45792 
153 2 4.47176 3.01537 1.48423 
154 2 5.23075 3.73367 1.45116 
155 2 5.24167 3.04408 2.24621 
157 2 6.02395 2.994 1.48221 
159 2 6.69472 2.93471 2.22094 
169 2 2.91907 4.45679 1.49666 
174 2 5.20875 5.22722 1.53625 
183 2 0.687825 5.97902 2.22432 
186 2 2.23037 6.73348 1.48569 
188 2 1.48084 6.71537 2.24879 
66 2 2.28642 5.2349 0.0240851 
68 2 1.49525 5.18654 0.753934 
73 2 4.47062 4.52132 0.0241791 
74 2 5.25007 5.18552 -0.0362299 
82 2 0.728491 6.75328 0.00740071 
86 2 2.23796 6.7178 0.012599 
95 2 5.19725 5.98523 0.726387 
97 2 6.00508 5.92992 0.0101723 
98 2 6.67232 6.72209 0.0412651 
104 2 -0.00318348 0.772898 2.25277 
115 2 5.19196 -0.0242924 2.20726 
120 2 5.97954 0.779243 2.25643 
122 2 0.769287 2.21829 1.52897 
6 2 2.24019 0.7595 0.00472587 
7 2 2.23414 -0.0408216 0.740133 
10 2 3.71956 0.779576 -0.0499372 
13 2 4.47456 0.00434497 0.00422499 
29 2 2.97768 1.48529 -0.0252918 
32 2 2.98107 2.2162 0.770386 
34 2 5.26809 2.24697 0.017373 