ITEM: TIMESTEP
0
ITEM: NUMBER OF ATOMS
500
ITEM: BOX BOUNDS pp pp pp
0.0000000000000000e+00 7.4690079109286076e+00
0.0000000000000000e+00 7.4690079109286076e+00
0.0000000000000000e+00 7.4690079109286076e+00
ITEM: ATOMS id type vx vy vz 
450 1 -1.47299 -0.454212 -2.69982 
451 1 -1.07571 -1.77292 1.21718 
452 1 0.591976 1.49409 -0.280093 
453 1 -2.28665 2.92425 2.41925 
454 1 3.23627 0.75346 0.866271 
455 1 1.91269 -0.967565 0.858653 
456 1 -0.0907947 1.55945 -2.23561 
457 1 5.78703 6.61217 -2.43535 
458 1 -1.04434 -3.03435 0.778965 
459 1 -0.644721 4.05387 -5.78504 
462 1 4.01744 -0.732606 -6.35457 
463 1 1.03637 1.12115 -0.772327 
464 1 -0.744144 5.88192 -1.59974 
465 1 0.259408 -1.74356 -3.92505 
466 1 0.126572 -1.31852 0.177475 
467 1 -1.49096 -7.31622 -0.969215 
468 1 -0.205535 3.32689 0.748647 
469 1 1.03272 1.89228 -0.312838 
470 1 3.50396 -4.49363 1.90976 
472 1 -3.49262 -6.3598 -0.316367 
475 1 -3.5865 1.97142 -4.13451 
476 1 -2.06018 -1.45681 4.62826 
477 1 -2.89559 0.487817 2.74688 
478 1 -0.161549 -0.69791 1.01546 
479 1 1.72012 0.425553 1.36371 
480 1 4.85897 -1.65353 -2.33736 
481 1 0.712793 -3.27563 -0.942068 
482 1 2.12471 -0.0845254 -2.55514 
484 1 1.26522 -2.11825 1.19203 
488 1 2.37786 -0.800384 -3.14782 
489 1 1.27501 -2.99987 0.848534 
490 1 -0.838082 -8.98021 -1.16065 
491 1 2.30431 1.60517 3.87958 
492 1 0.737632 3.00888 1.34934 
493 1 1.64537 -0.0665722 -0.356499 
494 1 2.25465 -2.20224 0.248821 
496 1 1.48055 -2.4871 -0.714492 
497 1 -2.68053 0.759184 -5.9065 
499 1 2.4619 2.26427 -1.07486 
500 1 -0.645416 1.3586 2.33667 
385 1 3.33217 -0.850148 -1.03845 
386 1 2.34466 -3.40411 0.241165 
387 1 4.79436 2.09682 2.4703 
388 1 1.57892 -1.91627 0.497666 
389 1 2.71912 -3.7285 -3.70753 
390 1 2.78192 -0.248009 -3.95585 
391 1 2.0695 1.31004 -2.99138 
392 1 4.86548 1.93546 -1.47628 
393 1 -5.76826 0.128294 -1.839 
394 1 2.82192 0.4917 -4.69434 
396 1 0.545154 2.6494 5.41863 
397 1 -1.4544 -0.352857 -0.143441 
398 1 1.39321 -2.03642 2.50494 
399 1 2.24799 4.00992 2.95905 
400 1 1.24016 2.5339 -0.723065 
401 1 -1.55335 1.60583 0.0991968 
402 1 4.54124 2.45031 0.0778503 
403 1 -0.1738 0.976325 1.89188 
404 1 1.93049 -2.81924 0.544475 
405 1 -2.38617 4.40802 -2.29737 
406 1 -1.98021 -1.11154 1.00436 
407 1 -1.74006 1.31312 -0.86022 
410 1 -4.07672 3.84085 -0.0848172 
413 1 -1.75475 -2.8137 5.77145 
414 1 3.19043 3.11091 -2.628 
415 1 2.29294 -3.0108 0.943445 
417 1 3.75513 4.30687 -1.52096 
418 1 3.76727 3.53069 1.25439 
419 1 -4.35192 1.02246 2.15804 
420 1 -1.89917 0.202128 3.14381 
421 1 2.167 2.19032 0.679254 
422 1 -0.746633 5.16261 5.54047 
423 1 1.33016 1.04121 -3.0227 
424 1 1.18044 0.413034 -2.68883 
426 1 -1.06966 -0.89609 -3.08823 
427 1 -0.310062 -5.26275 1.28872 
428 1 1.31202 -3.42244 3.42203 
429 1 -1.46534 -1.4299 -2.16816 
430 1 2.72898 -2.27646 1.49918 
431 1 -5.73616 2.47965 -0.38836 
432 1 0.394728 5.67078 2.0029 
433 1 -1.01781 -10.042 -0.76436 
434 1 -3.23192 -1.36471 3.18755 
435 1 -1.0513 -2.67478 0.0131599 
436 1 -1.5289 -1.46811 2.2601 
437 1 0.232777 -0.509915 -0.526514 
438 1 -1.99448 -0.973908 -0.526146 
440 1 -0.324628 -5.57098 2.77026 
442 1 -2.95424 -2.26777 2.68202 
443 1 3.92882 4.85499 3.44433 
444 1 0.16357 5.3345 4.02562 
445 1 1.26016 -2.84328 0.993819 
446 1 0.747367 4.96291 4.49493 
321 1 3.49161 1.49938 -1.80587 
322 1 0.647482 2.50804 3.67696 
323 1 0.107155 -3.21136 2.93419 
324 1 0.783658 -0.122954 4.13247 
325 1 -1.67025 0.474273 4.18731 
326 1 -2.10798 1.49344 -1.67032 
327 1 0.543461 -2.27405 1.32162 
328 1 -2.90815 -3.20021 -2.13172 
329 1 -3.31582 1.86586 -0.366845 
330 1 -5.058 1.07023 0.918234 
331 1 -1.18362 -4.64946 4.79385 
332 1 1.11957 0.961207 -3.52054 
333 1 0.0587804 5.19384 -1.47866 
334 1 1.92676 -2.66379 -3.69717 
335 1 -1.44527 -2.83046 3.24236 
337 1 4.52653 -2.73643 -3.05678 
338 1 -0.985908 1.88532 -5.47245 
339 1 -0.524548 2.96113 1.92633 
343 1 3.05177 1.89004 -0.13304 
344 1 1.72525 1.09822 0.152369 
345 1 -8.35591 -4.79927 -3.37393 
349 1 -2.82429 -3.51005 0.134874 
350 1 2.93555 3.454 5.26266 
351 1 0.859868 3.23407 0.253886 
352 1 4.50079 -1.22165 1.07115 
353 1 1.94605 -3.96336 -1.41902 
354 1 0.0769522 4.17408 -0.161694 
355 1 2.33103 -1.83907 3.86114 
356 1 1.46168 -2.10288 -1.20904 
357 1 -6.10417 -4.31385 -1.28749 
358 1 -1.53565 0.189447 -2.20246 
360 1 0.960787 -0.132006 1.14149 
361 1 -5.19449 -0.00391472 -2.44791 
363 1 -1.03573 0.864621 -0.289691 
366 1 -1.25869 -2.15336 1.08663 
368 1 2.25716 2.24745 1.00054 
369 1 -1.87957 -3.42895 -0.597483 
370 1 1.5579 0.923515 -1.78897 
371 1 -0.828281 -1.47644 -2.01764 
372 1 -3.45055 4.65069 -4.4067 
373 1 -0.302491 2.44618 0.977374 
374 1 0.612999 -1.01148 1.59945 
375 1 -1.1916 0.946392 2.58967 
376 1 2.74432 0.150267 -0.0422236 
377 1 6.89909 -4.69066 4.83428 
378 1 -3.78714 -1.6736 6.26699 
379 1 -1.6354 0.86484 -0.682849 
380 1 -0.0502196 1.05332 0.454009 
382 1 2.77579 0.0866684 2.38442 
383 1 -6.47725 2.70974 -0.485011 
384 1 -0.847552 -0.283909 -1.55561 
257 1 -1.18605 6.53398 -2.92266 
258 1 3.45167 -1.63037 2.70062 
259 1 -1.24637 -2.40287 0.57615 
260 1 0.88869 -3.79076 0.232286 
261 1 0.473713 -2.38823 3.54495 
262 1 1.38262 0.941798 -2.23424 
263 1 -2.01347 1.33951 2.90663 
265 1 0.436341 1.04789 2.03084 
266 1 -1.46349 1.21678 2.09436 
268 1 -1.62094 -2.959 -4.16032 
270 1 -2.09806 -1.68007 -0.656812 
271 1 0.550529 1.12183 -2.31082 
272 1 -2.18758 4.40703 -2.64448 
274 1 1.15604 -3.42709 3.06119 
275 1 -4.28769 4.01421 4.40581 
277 1 -2.44446 -0.323823 2.26968 
278 1 6.08205 0.503568 -1.63818 
279 1 1.18437 5.9096 0.899872 
280 1 -0.440616 1.12447 5.28202 
281 1 -1.95081 0.424045 -0.973054 
284 1 0.2961 -1.59699 1.95038 
285 1 2.13556 1.44837 0.845185 
286 1 0.725083 -4.67142 -4.40686 
287 1 -2.54755 0.445185 -6.49175 
290 1 -4.43317 0.544609 -5.54729 
291 1 -3.14731 2.88836 1.84967 
292 1 -2.9558 -1.34553 -3.29582 
293 1 -4.79924 4.39345 -2.07414 
295 1 -6.3971 -2.4982 -5.59619 
296 1 -1.60548 -2.38375 -1.23516 
297 1 -2.55546 -0.0660012 2.05601 
298 1 4.7629 2.12203 3.17825 
299 1 -0.0787972 0.0982617 -3.18718 
301 1 0.177444 -1.82603 -2.04348 
303 1 -4.64428 2.43408 1.30559 
304 1 -2.7208 -1.82008 -1.05805 
305 1 2.92283 -4.66526 3.19234 
306 1 -0.431955 -1.4562 -1.19144 
308 1 1.01282 -2.50067 -3.88106 
310 1 -1.07817 -1.20388 -0.341585 
311 1 -3.02461 1.0967 1.80724 
312 1 3.8877 2.37978 2.57153 
313 1 1.60565 1.10476 -2.04718 
314 1 -1.18265 3.98493 0.683151 
315 1 1.38904 -1.25976 2.9411 
316 1 2.97591 -2.34539 -2.76757 
317 1 0.140919 -4.43585 -4.40942 
318 1 0.972377 3.14774 -0.407098 
319 1 1.13962 2.33181 -3.56961 
193 1 -3.84968 4.8063 3.78519 
194 1 -4.68267 1.61688 0.75428 
195 1 -1.88812 -1.05312 1.40876 
198 1 -0.270291 -1.49265 0.808035 
199 1 0.813617 0.611119 0.800699 
200 1 2.41642 -0.4257 3.46056 
201 1 2.40205 -0.105987 -1.94051 
202 1 4.59625 -1.50368 -2.40596 
204 1 -2.43554 5.12186 -0.935852 
205 1 -1.04537 -0.901412 -0.486324 
207 1 2.29817 4.30126 -1.68274 
208 1 1.02039 0.471169 3.48431 
210 1 2.41954 1.81504 0.825089 
211 1 0.499579 -3.66426 -0.190466 
212 1 2.93284 -2.8182 -0.625979 
214 1 -7.02743 -0.15845 5.76374 
216 1 4.75639 -1.95729 1.31205 
217 1 0.0153479 -1.45193 -0.326654 
219 1 0.729062 -5.10146 3.54676 
220 1 -1.10733 0.470288 0.2303 
221 1 2.89017 -2.88881 1.08988 
222 1 -1.35762 0.395572 0.511002 
225 1 6.63839 2.61734 -0.864076 
226 1 -2.63473 3.76123 -0.610054 
228 1 1.80781 -5.13563 1.55298 
229 1 2.59843 -2.10293 -3.48905 
230 1 -1.47461 4.93186 -6.52093 
231 1 -2.62296 5.38881 6.01852 
232 1 -2.52043 -1.69218 -3.09435 
233 1 2.9715 -4.15544 2.65752 
234 1 -3.57232 2.24785 -0.633591 
235 1 0.558742 4.25878 -0.627542 
236 1 4.01607 -0.567518 5.43395 
237 1 -7.55884 -1.05376 6.39073 
238 1 -0.135872 -2.03437 5.81263 
239 1 1.42261 -2.94177 3.54749 
241 1 4.06069 0.522113 -8.12723 
242 1 -2.24902 -0.433983 -2.02729 
244 1 -3.36029 2.08625 0.898123 
245 1 -0.364058 -0.841352 3.13077 
246 1 3.88819 -0.41088 -0.0430579 
247 1 -5.48829 -3.54274 -0.78567 
248 1 2.62951 3.97303 2.67157 
249 1 -3.88866 5.0209 4.08256 
251 1 1.7083 0.347186 -2.5066 
252 1 5.12595 2.19882 -2.57345 
253 1 -3.81049 -4.02898 2.20432 
254 1 4.19903 2.42859 1.01357 
255 1 3.37164 -2.42961 -2.87205 
256 1 -0.729293 -1.44167 1.35986 
129 1 -0.915499 3.00179 -1.87025 
131 1 3.53149 1.56087 -0.991823 
133 1 -5.79211 -0.209552 1.02718 
134 1 -1.0291 -2.03401 1.98745 
136 1 3.1006 -3.40997 1.44055 
137 1 0.614635 -1.0445 0.108231 
139 1 -3.74416 -0.759365 -0.683397 
142 1 -0.25545 0.841455 -2.19955 
143 1 -0.496564 2.45915 -1.90529 
144 1 -1.72163 1.09776 0.626775 
145 1 -5.82411 0.0673133 -2.91708 
146 1 -3.54446 2.77093 1.07724 
150 1 -3.5408 -2.72517 3.18305 
151 1 0.410585 0.402873 2.47393 
152 1 2.94975 -3.50887 4.12783 
156 1 0.235192 -0.427628 -0.677699 
158 1 5.80766 3.42708 -0.873563 
160 1 1.12664 1.58971 0.924097 
161 1 -0.286285 2.17466 3.14449 
162 1 4.26882 -2.91687 0.147473 
163 1 -4.01345 -0.493854 5.75425 
164 1 -1.37949 0.718455 0.20815 
165 1 1.67318 -0.485792 -4.36367 
166 1 -4.07744 4.24601 3.45949 
167 1 2.46608 -2.87449 0.271484 
168 1 -2.31813 -1.944 -0.552701 
170 1 1.98865 -2.16705 -0.0147112 
171 1 1.67698 3.79328 0.763146 
172 1 -4.79879 1.20999 -2.67949 
173 1 -1.52514 -1.32551 -3.504 
175 1 0.82584 -2.01886 -0.56419 
176 1 0.443297 -2.57464 -1.73552 
177 1 4.45862 1.41044 0.357709 
178 1 -1.9592 -1.35931 -0.689574 
179 1 3.72607 -2.79949 -2.37787 
180 1 -4.77968 -2.84485 4.37408 
181 1 -5.81445 1.00178 3.16483 
182 1 0.705871 -2.81875 -1.18317 
184 1 -1.43616 2.51914 -3.20056 
185 1 2.98017 6.23749 5.0978 
187 1 -3.94356 0.61321 -6.06236 
189 1 -0.660128 4.58348 0.338563 
190 1 -3.56145 -2.85051 -1.91177 
191 1 2.88285 3.31548 1.99456 
192 1 3.74535 4.51159 2.38032 
65 1 2.05262 4.63581 -5.88755 
67 1 -1.66402 4.91041 3.181 
69 1 -1.13155 -3.10889 2.45764 
70 1 -5.38394 -2.93793 -2.25629 
71 1 0.744511 -4.73319 1.37503 
72 1 1.78577 2.45526 2.90872 
75 1 2.64541 0.462558 -0.0180456 
76 1 -1.9148 0.968212 -3.11779 
77 1 1.99067 4.51428 -1.82141 
78 1 -0.451598 -4.11106 -0.564365 
79 1 5.9338 5.77503 -0.964535 
80 1 1.05726 4.64419 -1.08157 
81 1 5.08098 0.121715 2.16198 
83 1 1.92121 7.18582 6.42468 
84 1 6.4186 -1.7927 2.85176 
85 1 -1.73517 3.91229 -3.43691 
87 1 1.72576 0.265597 2.39634 
88 1 -4.80313 5.74158 2.43396 
89 1 -3.48894 3.6907 -2.15469 
90 1 1.00941 3.18161 3.84976 
91 1 0.246557 -0.56759 -0.411193 
92 1 4.16136 -0.753345 3.00697 
93 1 0.659696 0.52612 -2.35471 
94 1 -3.06311 0.127092 0.824635 
96 1 0.52649 -2.20804 -1.68437 
99 1 -1.44389 4.08509 -2.97 
100 1 3.2089 4.02788 -2.33069 
101 1 -0.569452 3.10898 -0.130103 
102 1 -0.848129 1.01931 -4.9324 
103 1 -2.21751 -5.09075 4.12979 
105 1 -1.40138 3.61961 0.705556 
106 1 -2.96771 1.52135 -0.893805 
107 1 2.16352 2.61121 3.72621 
108 1 -0.0661136 -1.03938 -0.896127 
109 1 -2.87175 -2.31212 -2.33126 
110 1 2.15694 0.230482 -1.40662 
111 1 -0.975628 -2.11073 -1.60541 
112 1 2.18068 0.935544 2.40323 
113 1 -6.2471 -0.788675 -1.99238 
114 1 -2.17587 -0.957967 -7.06509 
116 1 0.510085 -4.86819 2.07905 
117 1 -3.41693 2.51315 -0.395835 
118 1 1.99813 5.14342 4.9954 
119 1 -4.64208 0.169013 0.558676 
121 1 3.63775 -1.24111 -3.59719 
123 1 0.0904543 0.019224 -0.114434 
124 1 1.95908 1.91001 1.91176 
125 1 -2.82514 2.92131 5.68255 
126 1 -1.74813 1.8625 0.519383 
127 1 5.09289 -5.35854 -0.908712 
128 1 -3.80888 0.508413 1.46958 
1 1 1.06965 5.30136 -3.84603 
2 1 0.213132 -3.77942 2.72672 
3 1 -1.84215 -0.577006 0.804536 
4 1 4.53098 -2.48174 2.91789 
5 1 5.2478 -0.910611 2.08059 
8 1 -1.98591 -1.04692 -0.183131 
9 1 3.16786 -4.38109 2.96601 
11 1 0.538601 -0.985438 -3.08659 
12 1 3.1078 1.75961 -1.01931 
14 1 -2.70304 -8.11162 0.144073 
15 1 3.41485 1.18548 3.95591 
16 1 2.2993 -0.283772 -1.59246 
17 1 -5.10095 -1.34694 -4.53949 
18 1 5.03739 -6.17042 0.161666 
19 1 1.40817 -3.91181 -3.36485 
20 1 4.2179 2.97029 -3.03506 
21 1 2.21741 -1.46299 2.97714 
22 1 2.06777 0.465436 0.250103 
23 1 2.77578 1.57811 -3.82894 
24 1 0.340992 0.789212 -0.4329 
25 1 0.282795 2.46898 -2.05724 
26 1 0.779214 0.609947 1.71501 
27 1 -3.3176 0.708061 3.60123 
28 1 0.19478 -4.12542 1.09364 
30 1 5.69669 0.467962 2.60436 
31 1 -0.944432 3.22037 -0.81306 
33 1 2.79122 -3.68508 -4.26552 
35 1 2.12885 1.94791 1.7828 
36 1 1.80994 3.18508 -2.71906 
37 1 0.691533 -0.482959 -0.885386 
38 1 1.25098 3.12526 0.891047 
42 1 0.655968 -0.734729 1.6316 
43 1 -4.20444 2.24993 -0.538457 
44 1 -2.29462 -1.55735 -0.581855 
45 1 -1.59536 -3.90675 -1.92 
46 1 0.355419 1.72938 1.0862 
47 1 -0.592674 -1.98259 -1.20889 
48 1 7.75044 -1.4193 2.99672 
50 1 4.22485 -1.13511 -4.88775 
51 1 -5.05176 -1.79018 0.972148 
52 1 1.11385 -0.719391 6.04543 
53 1 -4.55351 -1.74339 -6.11039 
54 1 -1.10834 -0.057343 -3.30988 
55 1 0.258614 -1.90621 -6.58227 
56 1 -0.349176 -4.4306 0.605799 
57 1 -0.967349 -0.693231 2.23081 
58 1 0.592902 -5.52728 -7.76956 
60 1 2.46084 -2.00192 -0.0968906 
61 1 3.20879 0.344976 0.771404 
62 1 1.99691 -5.57579 -3.13941 
63 1 0.285728 0.441922 2.56702 
64 1 0.543664 -0.925105 0.972973 
449 2 0.299949 1.86056 -1.27488 
460 2 -2.44874 -0.700303 2.28595 
461 2 0.985508 -3.15666 2.9596 
471 2 -3.05903 0.898588 -2.02164 
473 2 -1.43724 1.78582 2.1847 
474 2 -1.00252 -1.43603 -4.11015 
483 2 -2.35739 -2.38017 1.37244 
485 2 2.69959 -0.429376 1.53026 
486 2 -3.34082 1.57304 4.08784 
487 2 -3.19328 3.45743 5.67498 
495 2 -5.04626 -1.34466 0.745794 
498 2 -0.166225 3.87928 2.84777 
395 2 3.75673 1.50372 -0.413897 
408 2 -0.115326 1.41446 2.18886 
409 2 4.30737 -4.13803 0.473935 
411 2 1.07507 1.69705 -3.06084 
412 2 -2.62993 2.89896 -2.14764 
416 2 1.9325 -1.76676 -7.80646 
425 2 3.54997 -0.882379 -4.42036 
439 2 -0.0341812 3.80081 1.03923 
441 2 -1.09846 0.734059 1.78354 
447 2 -3.49164 -0.607179 0.858863 
448 2 3.49759 1.15297 3.21283 
336 2 1.48089 -3.61748 -6.43029 
340 2 -2.02621 3.01234 2.02227 
341 2 -2.32378 3.00391 0.761368 
342 2 -0.445521 -0.459187 1.01107 
346 2 -0.240577 0.612255 -5.32454 
347 2 8.23642 3.04881 -10.178 
348 2 -1.1751 -4.15157 0.949184 
359 2 -3.43466 -5.54623 0.00503419 
362 2 -0.880182 0.487894 -5.60452 
364 2 -2.38578 2.99644 0.548558 
365 2 1.54308 0.226991 -3.67974 
367 2 0.832839 1.36676 -0.805026 
381 2 1.37907 -1.75739 -0.887576 
264 2 2.22772 5.2239 0.166226 
267 2 -2.85151 -0.726916 -2.45819 
269 2 -1.84677 3.16219 -0.255528 
273 2 -1.82878 0.0976192 2.18398 
276 2 -0.50275 -1.81485 -2.68703 
282 2 1.16348 0.75036 -1.29905 
283 2 0.296173 3.96169 -0.75889 
288 2 1.56866 0.51736 -0.215464 
289 2 -2.97281 1.13571 -2.03408 
294 2 0.174901 3.2863 -0.228259 
300 2 -6.2725 -2.55724 -1.26328 
302 2 -2.03378 -7.0317 2.55189 
307 2 4.63476 -2.1468 -1.68401 
309 2 1.32616 1.68995 1.24485 
320 2 -3.64945 -2.11517 -1.99454 
196 2 -5.02057 -0.156743 4.51456 
197 2 0.936973 1.20175 -0.827641 
203 2 -1.57802 3.53581 -2.63187 
206 2 1.44113 0.292221 2.85379 
209 2 3.29744 -1.50074 -6.86187 
213 2 -2.32251 -3.26379 1.59102 
215 2 0.872357 0.538618 -2.02644 
218 2 7.06769 1.99052 4.43598 
223 2 0.0734799 -2.01251 1.93896 
224 2 -4.67677 -2.42301 0.67119 
227 2 -3.21593 3.06881 3.08042 
240 2 -1.54966 4.37439 -0.33299 
243 2 -1.43469 -3.43851 -1.95774 
250 2 3.32455 -2.37006 1.02654 
130 2 -2.0954 -5.11461 -1.98092 
132 2 -4.22105 -3.26159 1.80963 
135 2 2.92176 2.10311 -2.2326 
138 2 1.27099 -3.53172 -4.25486 
140 2 -1.59932 3.58257 3.20355 
141 2 1.03377 -1.98493 -0.663983 
147 2 4.96577 -1.58916 0.96461 
148 2 3.67096 2.90675 -1.8883 
149 2 -2.11417 -3.28763 -3.57804 
153 2 -0.953044 2.77424 -0.947622 
154 2 0.245493 -0.110849 -4.25384 
155 2 1.34468 5.64458 0.520588 
157 2 4.88401 0.618705 -1.15039 
159 2 -2.75282 -5.30986 -2.00672 
169 2 -6.85105 -2.46147 0.28801 
174 2 -1.94625 -0.0914792 4.23134 
183 2 -5.89618 0.398945 -1.62714 
186 2 -1.04279 1.14923 -0.811741 
188 2 -1.30536 -0.680615 0.81137 
66 2 4.56112 0.670121 2.40693 
68 2 0.153439 -4.17026 0.691841 
73 2 -1.07491 3.99945 2.40847 
74 2 2.17536 -4.25976 -3.6229 
82 2 -1.83948 3.10749 0.728662 
86 2 -0.276241 -0.430719 1.25996 
95 2 -3.08525 0.983306 -2.05095 
97 2 2.9668 -4.52627 1.01651 
98 2 -4.98408 -0.0128398 4.12395 
104 2 -0.328566 2.59905 1.21655 
115 2 -3.64211 -2.43726 -3.32215 
120 2 0.42157 3.23534 1.58327 
122 2 2.22596 -2.23072 3.51483 
6 2 -0.0382591 1.25892 0.463683 
7 2 -0.65482 -4.09114 -0.685783 
10 2 -1.49751 3.25788 -5.02113 
13 2 -0.703433 0.452919 0.403 
29 2 -0.992434 -0.870304 -2.52869 
32 2 -0.643643 -2.43978 2.34975 
34 2 3.98745 0.625642 1.74628 
39 2 -4.00914 -2.9795 -1.34689 
40 2 3.47581 2.15113 4.93482 
41 2 0.323806 -1.79091 3.4957 
49 2 0.0523734 -2.47019 0.711847 
59 2 -1.70191 -0.908458 -1.07749 
ITEM: TIMESTEP
10
ITEM: NUMBER OF ATOMS
500
ITEM: BOX BOUNDS pp pp pp
0.0000000000000000e+00 7.4690079109286076e+00
0.0000000000000000e+00 7.4690079109286076e+00
0.0000000000000000e+00 7.4690079109286076e+00
ITEM: ATOMS id type vx vy vz 
450 1 -1.42139 -0.34422 -2.49116 
451 1 -1.25748 -1.70873 1.10271 
452 1 0.668472 1.29672 -0.26593 
453 1 -2.20442 2.77747 2.3326 
454 1 3.15444 0.754648 0.944943 
455 1 1.98644 -0.977934 0.880913 
456 1 -0.162961 1.78721 -2.27175 
457 1 5.61241 6.30263 -2.4434 
458 1 -0.789164 -2.79991 0.688778 
459 1 -0.534175 3.88217 -5.65276 
462 1 3.85196 -0.615923 -6.18322 
463 1 1.02089 1.02062 -0.942807 
464 1 -0.569908 5.72449 -1.58747 
465 1 0.315642 -1.87761 -3.94616 
466 1 0.0278205 -1.25537 0.176242 
467 1 -1.59429 -7.06093 -0.817239 
468 1 -0.0805211 3.54574 0.601627 
469 1 1.03493 1.85971 -0.387586 
470 1 3.54031 -4.56606 1.94432 
472 1 -3.51165 -6.24459 -0.182262 
475 1 -3.6192 2.06667 -4.06008 
476 1 -1.90125 -1.60413 4.59217 
477 1 -2.84642 0.469455 2.7362 
478 1 0.00356365 -0.768953 0.854602 
479 1 1.74046 0.324821 1.20109 
480 1 4.53443 -1.39006 -2.24014 
481 1 0.736153 -3.17943 -0.941845 
482 1 2.12724 -0.197548 -2.41129 
484 1 1.29691 -2.11065 1.22971 
488 1 2.44159 -0.979401 -3.18364 
489 1 1.15923 -2.95271 0.972218 
490 1 -0.876205 -8.65721 -1.0288 
491 1 2.1792 1.52674 3.8203 
492 1 0.6133 3.04762 1.19288 
493 1 1.87944 -0.239232 -0.330786 
494 1 2.24197 -2.27384 0.265752 
496 1 1.46851 -2.39345 -0.624916 
497 1 -2.77483 0.719979 -5.78033 
499 1 2.27849 2.41299 -0.979725 
500 1 -0.525697 1.06451 2.31371 
385 1 3.1341 -0.849926 -1.17384 
386 1 2.37376 -3.21483 0.197994 
387 1 4.62145 2.20556 2.57522 
388 1 1.72565 -1.91894 0.700233 
389 1 2.58087 -3.5653 -3.61822 
390 1 2.60957 -0.0835301 -3.78683 
391 1 2.01275 1.209 -2.93073 
392 1 4.62852 2.08447 -1.4436 
393 1 -5.44363 0.0501224 -1.82039 
394 1 2.77604 0.450095 -4.73279 
396 1 0.614912 2.55968 5.23409 
397 1 -1.51111 -0.219805 -0.122522 
398 1 1.36708 -2.14915 2.3567 
399 1 2.31786 3.90339 2.93427 
400 1 1.23322 2.43866 -0.639621 
401 1 -1.61458 1.45313 0.144472 
402 1 4.58892 2.49388 0.195295 
403 1 0.00075466 0.897966 1.8829 
404 1 1.86683 -2.56651 0.445297 
405 1 -2.21561 4.27274 -2.24958 
406 1 -1.95146 -1.15063 1.01639 
407 1 -1.62241 1.38259 -0.839937 
410 1 -4.05201 3.43644 0.286344 
413 1 -1.84171 -2.60275 5.85231 
414 1 3.18881 2.87666 -2.53342 
415 1 2.02269 -2.87663 0.820427 
417 1 3.78818 4.26182 -1.58003 
418 1 3.61768 3.58453 1.29714 
419 1 -4.2206 0.808607 2.06271 
420 1 -1.76767 0.305701 3.0644 
421 1 2.05644 2.0983 0.751684 
422 1 -0.699953 5.13863 5.39301 
423 1 1.46194 0.900697 -2.98079 
424 1 1.03026 0.534117 -2.55255 
426 1 -1.03607 -0.784453 -3.02727 
427 1 -0.247415 -5.40976 1.35693 
428 1 1.42 -3.32719 3.17753 
429 1 -1.53297 -1.34285 -1.96855 
430 1 2.69933 -2.16819 1.33051 
431 1 -5.76936 2.22268 -0.170615 
432 1 0.221553 5.73835 2.02863 
433 1 -1.00159 -9.85878 -0.621139 
434 1 -3.203 -1.35353 3.00928 
435 1 -1.11378 -2.67648 0.0702411 
436 1 -1.38264 -1.51336 2.21323 
437 1 0.31072 -0.496399 -0.570505 
438 1 -1.99953 -0.853829 -0.546752 
440 1 -0.298406 -5.49284 2.7601 
442 1 -2.92618 -2.22098 2.64729 
443 1 3.76944 4.85074 3.38615 
444 1 0.242553 5.15455 3.81115 
445 1 1.43503 -2.6216 1.00415 
446 1 0.66884 4.57955 4.20799 
321 1 3.62666 1.52407 -1.86795 
322 1 0.305751 2.41298 3.38234 
323 1 0.155876 -3.21203 2.89801 
324 1 0.71958 0.138287 4.05592 
325 1 -1.72019 0.335654 3.93767 
326 1 -2.09418 1.41634 -1.5708 
327 1 0.427403 -2.23926 1.33913 
328 1 -2.76576 -3.14581 -1.89304 
329 1 -3.38871 1.77987 -0.427709 
330 1 -4.83525 1.09874 0.987175 
331 1 -1.00483 -4.36151 4.53443 
332 1 0.989634 1.05581 -3.26285 
333 1 -0.00232204 5.09768 -1.23398 
334 1 2.07902 -2.65573 -3.42814 
335 1 -1.31981 -2.58991 3.08435 
337 1 4.34873 -2.56066 -2.8567 
338 1 -0.929902 1.953 -5.33749 
339 1 -0.63465 2.92468 1.81459 
343 1 2.91984 2.05441 -0.134287 
344 1 1.65365 0.942159 0.128943 
345 1 -8.18411 -4.40044 -3.37269 
349 1 -2.92637 -3.24641 0.11145 
350 1 2.89352 3.29694 5.01288 
351 1 0.874712 2.98287 0.299646 
352 1 4.08087 -1.30184 1.06242 
353 1 1.94637 -3.93381 -1.24935 
354 1 0.0925239 4.05838 -0.146168 
355 1 2.27156 -1.99215 3.79957 
356 1 1.53354 -1.99263 -1.08676 
357 1 -5.90252 -4.34728 -1.16002 
358 1 -1.40354 -0.0975453 -2.06685 
360 1 1.00243 -0.197818 1.06067 
361 1 -4.94399 0.177656 -2.33851 
363 1 -1.0513 0.82881 -0.496855 
366 1 -1.34009 -2.35271 0.985176 
368 1 2.26393 2.21021 0.88153 
369 1 -2.08996 -3.41129 -0.606832 
370 1 1.57049 0.808356 -1.85227 
371 1 -0.73034 -1.29466 -1.8589 
372 1 -3.34131 4.3903 -4.28878 
373 1 -0.325386 2.48749 0.904327 
374 1 0.540928 -0.867032 1.61602 
375 1 -1.2241 0.992217 2.71946 
376 1 2.8201 0.189587 0.138748 
377 1 6.58112 -4.55543 4.64421 
378 1 -3.4672 -1.42817 6.1588 
379 1 -1.37315 0.854432 -0.393032 
380 1 -0.261688 1.09362 0.57177 
382 1 2.73521 0.020744 2.11042 
383 1 -6.41277 2.44729 -0.650023 
384 1 -0.903503 -0.258536 -1.48123 
257 1 -1.10622 6.16678 -3.07583 
258 1 3.34331 -1.6389 2.58281 
259 1 -1.13978 -2.47218 0.579902 
260 1 0.879521 -3.62672 0.280913 
261 1 0.444966 -2.20618 3.56127 
262 1 1.22039 1.12224 -2.12105 
263 1 -1.99548 1.38901 3.09709 
265 1 0.513327 0.861066 1.94163 
266 1 -1.27965 1.07143 1.98855 
268 1 -1.65122 -2.93635 -3.84121 
270 1 -2.08304 -1.64922 -0.584215 
271 1 0.654939 1.12874 -2.4794 
272 1 -2.21643 4.207 -2.76745 
274 1 0.87107 -3.4546 3.07728 
275 1 -4.33398 3.99048 4.24771 
277 1 -2.25661 -0.307897 2.32242 
278 1 5.94293 0.433996 -1.51582 
279 1 1.15755 5.91898 0.820437 
280 1 -0.42364 1.06977 5.17128 
281 1 -1.59238 0.461566 -0.910202 
284 1 0.601574 -1.70015 1.95211 
285 1 1.74768 1.64402 0.739329 
286 1 0.736754 -4.53792 -4.40201 
287 1 -2.4646 0.530207 -6.31958 
290 1 -4.30599 0.658067 -5.32785 
291 1 -3.08715 2.74155 1.55214 
292 1 -2.92259 -1.24334 -3.35093 
293 1 -4.63195 4.35675 -2.06429 
295 1 -6.34823 -2.43507 -5.5184 
296 1 -1.41514 -2.14245 -1.41836 
297 1 -2.55303 0.0784515 2.11282 
298 1 4.57883 2.07591 3.13842 
299 1 -0.039624 0.0555396 -2.99241 
301 1 0.372029 -1.6697 -2.11009 
303 1 -4.54799 2.46363 1.17731 
304 1 -2.56654 -1.68657 -1.12018 
305 1 2.8607 -4.61814 3.05692 
306 1 -0.259465 -1.48319 -1.12392 
308 1 0.987669 -2.48021 -3.84699 
310 1 -1.10152 -1.24063 -0.349134 
311 1 -3.0348 1.07908 1.8022 
312 1 3.58655 2.04668 2.42061 
313 1 1.68796 1.01094 -2.05013 
314 1 -0.997703 3.85178 0.678863 
315 1 1.4499 -1.14806 2.86743 
316 1 2.84301 -2.38691 -2.7184 
317 1 0.0373763 -4.31861 -4.44499 
318 1 0.903553 2.98664 -0.283806 
319 1 1.00219 2.30515 -3.45536 
193 1 -3.64538 4.70415 3.72704 
194 1 -4.58054 1.54739 0.871169 
195 1 -1.8673 -0.962404 1.33637 
198 1 -0.414566 -1.45815 0.762956 
199 1 0.60655 0.578528 0.777285 
200 1 2.18711 -0.473359 3.38147 
201 1 2.3923 0.0191917 -1.81485 
202 1 4.45261 -1.43233 -2.24947 
204 1 -2.18693 4.88151 -0.936076 
205 1 -1.05676 -1.1006 -0.361024 
207 1 2.33809 4.16681 -1.79918 
208 1 0.879705 0.562536 3.42449 
210 1 2.42848 1.61478 0.867719 
211 1 0.421698 -3.57987 -0.324879 
212 1 2.79052 -2.81285 -0.699276 
214 1 -6.75568 -0.469777 5.49394 
216 1 4.58774 -2.05999 1.3603 
217 1 -0.178314 -1.4025 -0.234812 
219 1 0.644397 -4.96384 3.40063 
220 1 -1.09546 0.277183 0.162179 
221 1 2.82983 -2.88947 1.07951 
222 1 -1.36365 0.365047 0.796496 
225 1 6.62401 2.40633 -0.72787 
226 1 -2.43055 3.68323 -0.791512 
228 1 1.63961 -5.24548 1.5029 
229 1 2.44193 -1.98475 -3.36711 
230 1 -1.61981 4.6837 -6.38873 
231 1 -2.5301 5.26259 5.81314 
232 1 -2.59355 -1.71269 -3.0968 
233 1 2.86186 -3.92946 2.56265 
234 1 -3.31255 2.2214 -0.788376 
235 1 0.598441 4.22584 -0.50712 
236 1 3.79867 -0.515083 5.16667 
237 1 -7.35545 -0.98317 6.05975 
238 1 -0.205135 -1.98001 5.75986 
239 1 1.38182 -2.74453 3.2813 
241 1 3.86878 0.471398 -7.79839 
242 1 -2.05422 -0.498686 -1.89245 
244 1 -3.12644 1.81914 1.04482 
245 1 -0.477195 -0.693656 3.01203 
246 1 3.69702 -0.247639 -0.0698866 
247 1 -5.36115 -3.32554 -0.61999 
248 1 2.62465 4.03746 2.87333 
249 1 -3.75743 4.79733 3.91146 
251 1 1.60728 0.382482 -2.44049 
252 1 5.01802 2.30463 -2.56647 
253 1 -3.63855 -3.79003 2.10199 
254 1 3.89453 2.39939 0.982865 
255 1 3.35014 -2.43252 -2.83744 
256 1 -0.751988 -1.34945 1.19229 
129 1 -0.771479 3.18513 -1.83347 
131 1 3.34985 1.64622 -1.01195 
133 1 -5.61823 -0.110662 0.984308 
134 1 -0.871443 -1.85829 2.10914 
136 1 3.13215 -3.2948 1.27565 
137 1 0.638247 -0.886436 0.169749 
139 1 -3.74159 -0.719129 -0.51392 
142 1 -0.288133 0.828153 -2.06507 
143 1 -0.414847 2.44261 -2.09766 
144 1 -1.72423 0.913136 0.497068 
145 1 -5.73648 -0.0145857 -2.73975 
146 1 -3.32077 2.57651 1.31398 
150 1 -3.51997 -2.75474 3.16465 
151 1 0.352716 0.356348 2.23969 
152 1 2.90639 -3.39367 4.05459 
156 1 0.325333 -0.510323 -0.64224 
158 1 5.67015 3.05344 -0.905307 
160 1 1.11311 1.39952 0.690316 
161 1 -0.160515 2.17658 3.04162 
162 1 4.24396 -2.71923 0.136079 
163 1 -3.83762 -0.558584 5.57525 
164 1 -1.21607 0.780683 0.160294 
165 1 1.57074 -0.423316 -4.17484 
166 1 -4.03602 4.02416 3.22978 
167 1 2.48759 -2.8655 0.286117 
168 1 -2.32451 -1.87722 -0.499436 
170 1 1.84228 -2.13125 -0.0158164 
171 1 1.53721 3.57923 0.891776 
172 1 -4.67031 1.15935 -2.56347 
173 1 -1.30022 -1.34961 -3.44367 
175 1 0.693317 -2.00851 -0.687444 
176 1 0.581342 -2.57573 -1.68281 
177 1 4.22776 1.36129 0.305154 
178 1 -2.00004 -1.14853 -0.622744 
179 1 3.58179 -2.66559 -2.18083 
180 1 -4.67817 -2.71542 4.15476 
181 1 -5.57703 0.890877 3.12317 
182 1 0.72493 -2.66428 -0.718946 
184 1 -1.31612 2.38849 -3.06999 
185 1 2.79758 6.30978 5.01587 
187 1 -3.75663 0.861001 -5.77418 
189 1 -0.733137 4.52513 0.423347 
190 1 -3.34746 -2.70766 -1.77377 
191 1 2.72122 3.24048 1.94962 
192 1 3.42335 4.39579 2.32281 
65 1 2.15043 4.54019 -5.68387 
67 1 -1.56342 5.05571 3.06449 
69 1 -1.12522 -3.00499 2.41683 
70 1 -5.26576 -3.04299 -2.26416 
71 1 0.707672 -4.65898 1.30287 
72 1 1.67838 2.31948 2.88899 
75 1 2.55332 0.51253 -0.0217467 
76 1 -1.67273 0.939547 -3.1713 
77 1 1.80652 4.33215 -1.8266 
78 1 -0.383839 -3.79867 -0.580816 
79 1 5.75787 5.53544 -0.963647 
80 1 0.795949 4.82695 -1.07324 
81 1 5.13754 0.227477 2.08792 
83 1 2.02369 6.77166 6.14286 
84 1 6.18339 -1.66681 2.61841 
85 1 -1.67991 3.9168 -3.39294 
87 1 1.55374 0.318959 2.26723 
88 1 -4.45867 5.70717 2.29507 
89 1 -3.6822 3.62585 -2.20168 
90 1 1.15504 3.16471 3.6135 
91 1 0.247809 -0.600998 -0.461608 
92 1 3.78479 -0.698863 2.86814 
93 1 0.871419 0.406601 -2.27137 
94 1 -3.00896 -0.00865126 0.853877 
96 1 0.60321 -2.16415 -1.69105 
99 1 -1.50841 4.09326 -3.06355 
100 1 3.10101 3.7454 -2.38056 
101 1 -0.598693 3.09318 0.0149496 
102 1 -0.797101 1.0052 -4.64139 
103 1 -2.08188 -5.10021 4.02869 
105 1 -1.26266 3.38433 0.749107 
106 1 -2.86512 1.39345 -0.97165 
107 1 2.16083 2.5513 3.77346 
108 1 -0.0124796 -1.00566 -0.803762 
109 1 -3.01419 -2.27429 -2.37445 
110 1 2.02755 0.209309 -1.37975 
111 1 -0.861435 -2.05416 -1.4661 
112 1 2.16456 0.741356 2.41521 
113 1 -6.06106 -0.892009 -1.85937 
114 1 -2.10847 -0.853368 -6.65217 
116 1 0.667956 -4.91452 2.07591 
117 1 -3.3269 2.5556 -0.177222 
118 1 1.98302 5.01587 4.9173 
119 1 -4.53785 0.426982 0.594828 
121 1 3.52456 -1.06029 -3.51025 
123 1 -0.0315132 -0.0128443 -0.14794 
124 1 1.81111 1.90748 1.57977 
125 1 -2.85694 2.93726 5.55966 
126 1 -1.52257 2.01323 0.667537 
127 1 5.02302 -5.19764 -0.804895 
128 1 -3.74101 0.626174 1.35982 
1 1 1.10929 4.8333 -3.69056 
2 1 0.37096 -3.63262 2.56585 
3 1 -1.81081 -0.664906 0.692592 
4 1 4.25485 -2.34424 2.76566 
5 1 5.34754 -0.899314 2.0491 
8 1 -1.77304 -1.05069 -0.266646 
9 1 2.93086 -4.12477 2.84274 
11 1 0.672111 -0.803097 -3.10063 
12 1 2.9779 1.74888 -1.22791 
14 1 -2.84826 -8.0196 0.0774105 
15 1 3.24355 1.06672 3.72282 
16 1 2.09701 -0.330067 -1.75462 
17 1 -4.84706 -1.37322 -4.29039 
18 1 4.85724 -5.79471 0.196463 
19 1 1.44519 -3.92307 -3.36821 
20 1 4.2957 2.96074 -3.00608 
21 1 2.02614 -1.45602 2.88771 
22 1 1.87081 0.538268 0.212661 
23 1 2.74519 1.59359 -3.6641 
24 1 0.199427 0.93799 -0.270535 
25 1 0.352936 2.15367 -2.04693 
26 1 1.04124 0.63335 1.68759 
27 1 -3.13475 0.665091 3.3953 
28 1 0.0769292 -3.95903 1.16554 
30 1 5.28401 0.383797 2.59426 
31 1 -1.04537 3.26457 -0.884456 
33 1 2.71607 -3.74741 -4.23216 
35 1 2.14084 2.08061 1.60074 
36 1 1.83412 3.16564 -2.57722 
37 1 0.776206 -0.377729 -0.76026 
38 1 1.27461 3.1184 0.990436 
42 1 0.727477 -0.70492 1.60916 
43 1 -4.26271 2.10964 -0.494384 
44 1 -2.35883 -1.72202 -0.637562 
45 1 -1.39515 -3.70538 -1.9185 
46 1 0.333246 1.49323 0.979708 
47 1 -0.3266 -2.03554 -1.17074 
48 1 7.49978 -1.38022 2.77758 
50 1 4.10705 -0.963921 -4.82218 
51 1 -5.15785 -1.93381 1.09734 
52 1 0.995653 -0.759706 6.02839 
53 1 -4.26642 -1.69047 -5.96068 
54 1 -1.07691 0.0741111 -3.34251 
55 1 0.301765 -1.98707 -6.37142 
56 1 -0.266801 -4.44283 0.679564 
57 1 -0.897492 -0.809474 2.18928 
58 1 0.516039 -5.51916 -7.52578 
60 1 2.49083 -2.06168 0.0381022 
61 1 3.1535 0.35533 0.775866 
62 1 1.98862 -5.28017 -2.98675 
63 1 0.379602 0.457321 2.45498 
64 1 0.64678 -0.750843 0.980505 
449 2 0.342068 1.86591 -1.27604 
460 2 -2.44711 -0.705393 2.2816 
461 2 0.987475 -3.1751 2.98037 
471 2 -3.09897 0.902068 -2.02221 
473 2 -1.43646 1.76886 2.16698 
474 2 -0.981779 -1.45674 -4.12026 
483 2 -2.37936 -2.4012 1.37612 
485 2 2.68097 -0.450031 1.49596 