********************************************************************************
*                       GENERAL UTILITY LATTICE PROGRAM                        *
*                                 Julian Gale                                  *
*                      Nanochemistry Research Institute                        *
*                           Department of Chemistry                            *
*                    Curtin University, Western Australia                      *
********************************************************************************
* Version = 4.1.0 * Last modified =   7th July 2013                            *
********************************************************************************
*  optimise     - perform optimisation run                                     *
*  conp         - constant pressure calculation                                *
*  property     - calculate properties for final geometry                      *
********************************************************************************
* alumina test file                                                            *
********************************************************************************


  Job Started  at 09:00.37 29th July       2013                               

  Number of CPUs =     1

  Host name      = M-A0002884.local                        


  Total number of configurations input =   1

********************************************************************************
*  Input for Configuration =   1                                               *
********************************************************************************

  Formula = Al4O6                                                       

  Number of irreducible atoms/shells =       4


  Total number atoms/shells =      20

  Dimensionality = 3               :  Bulk   


  Symmetry :

  Crystal family                   :  Hexagonal   
  Crystal class  (Groth - 1921)    :  Ditrigonal Scalenohedral             

  Space group (centrosymmetric)    :  R -3 C          

  Patterson group                  :  R -3 m   

  Cartesian lattice vectors (Angstroms) :

        2.380100    1.374151    4.331100
       -2.380100    1.374151    4.331100
        0.000000   -2.748303    4.331100

  Primitive cell parameters :            Full cell parameters :

  a =   5.1295    alpha =  55.2915       a =   4.7602    alpha =  90.0000
  b =   5.1295    beta  =  55.2915       b =   4.7602    beta  =  90.0000
  c =   5.1295    gamma =  55.2915       c =  12.9933    gamma = 120.0000

  Initial volumes (Angstroms**3):

  Primitive cell =          84.992234    Full cell =         254.976701

  Temperature of configuration =  0.000     K 

  Pressure of configuration =         0.000 GPa 

  Fractional coordinates of asymmetric unit :

--------------------------------------------------------------------------------
   No.  Atomic       x           y          z         Charge      Occupancy
        Label      (Frac)      (Frac)     (Frac)        (e)         (Frac)  
--------------------------------------------------------------------------------
      1 Al    c    0.000000    0.000000    0.352160 *   0.04300    1.000000    
      2 O     c    0.306240 *  0.000000    0.250000     0.51300    1.000000    
      3 Al    s    0.000000    0.000000    0.352160 *   2.95700    1.000000    
      4 O     s    0.306240 *  0.000000    0.250000    -2.51300    1.000000    
--------------------------------------------------------------------------------


  Constraints : 

--------------------------------------------------------------------------------
  Constraint no.      Unconstrained     Constrained    Coefficient    Offset
                         Variable         Variable
--------------------------------------------------------------------------------
           1              Strain 1        Strain 2       1.00000      0.0000
--------------------------------------------------------------------------------


********************************************************************************
*  General input information                                                   *
********************************************************************************

  Species output for all configurations : 

--------------------------------------------------------------------------------
  Species    Type    Atomic    Atomic    Charge       Radii (Angs)     Library
                     Number     Mass       (e)     Cova   Ionic  VDW   Symbol
--------------------------------------------------------------------------------
    Al       Core       13      26.98   0.043000   1.350  0.000  2.050          
    Al       Shell      13       0.00   2.957000   1.350  0.000  2.050          
    O        Core        8      16.00   0.513000   0.730  0.000  1.360          
    O        Shell       8       0.00  -2.513000   0.730  0.000  1.360          
--------------------------------------------------------------------------------


  Lattice summation method               =    Ewald          (3-D)
                                         =    Parry          (2-D)
                                         =    Saunders et al (1-D)
  Accuracy factor for lattice sums       =   12.000


  Time limit = Infinity

  Maximum range for interatomic potentials =    100000.000000 Angstroms

  General interatomic potentials :

--------------------------------------------------------------------------------
Atom  Types   Potential         A         B         C         D     Cutoffs(Ang)
  1     2                                                            Min    Max 
--------------------------------------------------------------------------------
O    s Al   s Buckingham    0.241E+04 0.265      0.00      0.00     0.000 10.000
O    s O    s Buckingham     25.4     0.694      32.3      0.00     0.000 12.000
Al   c Al   s Spring (c-s)   404.      0.00      0.00      0.00     0.000  0.800
O    c O    s Spring (c-s)   20.5      0.00      0.00      0.00     0.000  0.800
--------------------------------------------------------------------------------

********************************************************************************
*  Output for configuration   1                                                *
********************************************************************************


  Components of energy : 

--------------------------------------------------------------------------------
  Interatomic potentials     =          63.08516927 eV
  Monopole - monopole (real) =        -126.96762275 eV
  Monopole - monopole (recip)=        -250.81566546 eV
  Monopole - monopole (total)=        -377.78328821 eV
--------------------------------------------------------------------------------
  Total lattice energy : 
    Primitive unit cell      =        -314.69811894 eV
    Non-primitive unit cell  =        -944.09435681 eV
--------------------------------------------------------------------------------
  Total lattice energy (in kJmol-1): 
    Primitive unit cell      =          -30363.5579 kJ/(mole unit cells)
    Non-primitive unit cell  =          -91090.6736 kJ/(mole unit cells)
--------------------------------------------------------------------------------


  Number of variables =        6

  Maximum number of calculations  =          1000
  Maximum Hessian update interval =            10
  Maximum step size               =   1.000000000
  Maximum parameter tolerance     =   0.000010000
  Maximum function  tolerance     =   0.000010000
  Maximum gradient  tolerance     =   0.001000000
  Maximum gradient  component     =   0.010000000

  Symmetry constrained optimisation

  Symmetry used for second derivatives

  Cell parameters to be optimised using strains

  Newton-Raphson optimiser to be used

  BFGS hessian update to be used

  Start of bulk optimisation :

  Cycle:      0 Energy:      -314.698119  Gnorm:     19.420558  CPU:    0.011
  ** Hessian calculated **
  Cycle:      1 Energy:      -315.090877  Gnorm:      3.411301  CPU:    0.023
  ** Hessian calculated **
  Cycle:      2 Energy:      -315.173026  Gnorm:      0.298790  CPU:    0.042
  Cycle:      3 Energy:      -315.173279  Gnorm:      0.017975  CPU:    0.054


  **** Optimisation achieved ****


  Final energy =    -315.17328096 eV
  Final Gnorm  =       0.00069206

  Components of energy : 

--------------------------------------------------------------------------------
  Interatomic potentials     =          59.49169464 eV
  Monopole - monopole (real) =         -65.58576691 eV
  Monopole - monopole (recip)=        -309.07920869 eV
  Monopole - monopole (total)=        -374.66497560 eV
--------------------------------------------------------------------------------
  Total lattice energy : 
    Primitive unit cell      =        -315.17328096 eV
    Non-primitive unit cell  =        -945.51984289 eV
--------------------------------------------------------------------------------
  Total lattice energy (in kJmol-1): 
    Primitive unit cell      =          -30409.4037 kJ/(mole unit cells)
    Non-primitive unit cell  =          -91228.2112 kJ/(mole unit cells)
--------------------------------------------------------------------------------

  Final asymmetric unit coordinates :

--------------------------------------------------------------------------------
   No.  Atomic        x           y           z         Radius
        Label       (Frac)      (Frac)      (Frac)       (Angs) 
--------------------------------------------------------------------------------
     1  Al    c     0.000000    0.000000    0.356233    0.000000
     2  O     c     0.295771    0.000000    0.250000    0.000000
     3  Al    s     0.000000    0.000000    0.356234    0.000000
     4  O     s     0.297425    0.000000    0.250000    0.000000
--------------------------------------------------------------------------------

  Final Cartesian lattice vectors (Angstroms) :

        2.410026    1.391429    4.337223
       -2.410026    1.391429    4.337223
        0.000000   -2.782858    4.337223


  Final cell parameters and derivatives :

--------------------------------------------------------------------------------
       a            5.153232 Angstrom     dE/de1(xx)    -0.000421 eV/strain
       b            5.153232 Angstrom     dE/de2(yy)     0.000000 eV/strain
       c            5.153232 Angstrom     dE/de3(zz)     0.000331 eV/strain
       alpha       55.766661 Degrees      dE/de4(yz)     0.000000 eV/strain
       beta        55.766661 Degrees      dE/de5(xz)     0.000000 eV/strain
       gamma       55.766661 Degrees      dE/de6(xy)     0.000000 eV/strain
--------------------------------------------------------------------------------

  Primitive cell volume =            87.266137 Angs**3

  Density of cell =      3.880343 g/cm**3

  Non-primitive lattice parameters :

  a    =     4.820052  b   =     4.820052  c    =    13.011668
  alpha=    90.000000  beta=    90.000000  gamma=   120.000000

  Non-primitive cell volume =           261.798410 Angs**3


  Final internal derivatives :

--------------------------------------------------------------------------------
   No.  Atomic          a             b             c           Radius
        Label          (eV)          (eV)          (eV)        (eV/Angs)
--------------------------------------------------------------------------------
      1 Al    c       0.000000      0.000000     -0.000965      0.000000
      2 O     c      -0.001689      0.000000      0.000000      0.000000
      3 Al    s       0.000000      0.000000      0.002368      0.000000
      4 O     s      -0.002750      0.000000      0.000000      0.000000
--------------------------------------------------------------------------------
  Maximum abs         0.002750      0.000000      0.002368      0.000000
--------------------------------------------------------------------------------


  Born effective charge tensors : 

-------------------------------------------------------------------------------
  Atom             x           y             z
-------------------------------------------------------------------------------
   1 Al    x       2.4472     -0.3703     -0.0000
           y       0.3703      2.4472     -0.0000
           z      -0.0000     -0.0000      2.7488
-------------------------------------------------------------------------------
   2 O     x      -1.7494      0.0000     -0.0000
           y       0.0000     -1.5135      0.2579
           z      -0.0000      0.3341     -1.8325
-------------------------------------------------------------------------------




  Elastic Constant Matrix: (Units=GPa)

-------------------------------------------------------------------------------
  Indices      1         2         3         4         5         6    
-------------------------------------------------------------------------------
       1    607.5119  322.9412  182.3242   44.5913    0.0000    0.0000
       2    322.9412  607.5119  182.3242  -44.5913    0.0000    0.0000
       3    182.3242  182.3242  606.3524   -0.0000    0.0000    0.0000
       4     44.5913  -44.5913   -0.0000   95.6318    0.0000    0.0000
       5      0.0000    0.0000    0.0000    0.0000   95.6318   44.5913
       6      0.0000    0.0000    0.0000    0.0000   44.5913  142.2854
-------------------------------------------------------------------------------


  Elastic Compliance Matrix: (Units=1/GPa)

-------------------------------------------------------------------------------
  Indices      1         2         3         4         5         6    
-------------------------------------------------------------------------------
       1    0.002667 -0.001449 -0.000366 -0.001919  0.000000 -0.000000
       2   -0.001449  0.002667 -0.000366  0.001919 -0.000000  0.000000
       3   -0.000366 -0.000366  0.001870 -0.000000  0.000000 -0.000000
       4   -0.001919  0.001919 -0.000000  0.012246 -0.000000  0.000000
       5    0.000000 -0.000000  0.000000 -0.000000  0.012246 -0.003838
       6   -0.000000  0.000000 -0.000000  0.000000 -0.003838  0.008231
-------------------------------------------------------------------------------

  Mechanical properties :

-------------------------------------------------------------------------------
  Convention :                    Reuss         Voigt         Hill
-------------------------------------------------------------------------------
  Bulk  Modulus (GPa)     =     352.01356     355.17284     353.59320
  Shear Modulus (GPa)     =     110.53083     142.29557     126.41320
-------------------------------------------------------------------------------
  Velocity S-wave (km/s)  =       5.33712       6.05565       5.70770
  Velocity P-wave (km/s)  =      11.34446      11.85014      11.60006
-------------------------------------------------------------------------------
  Compressibility (1/GPa) =    0.00284080
-------------------------------------------------------------------------------
  Stress axis :                     x             y             z
-------------------------------------------------------------------------------
  Youngs Moduli (GPa)     =     374.96954     374.96954     534.89881
-------------------------------------------------------------------------------
  Poissons Ratio (x)      =                     0.54317       0.19595
  Poissons Ratio (y)      =       0.54317                     0.19595
  Poissons Ratio (z)      =       0.13736       0.13736
-------------------------------------------------------------------------------


  Piezoelectric Strain Matrix: (Units=C/m**2)

-------------------------------------------------------------------------------
  Indices      1         2         3         4         5         6    
-------------------------------------------------------------------------------
       x    -0.00000   0.00000   0.00000  -0.00000  -0.00000   0.00000
       y     0.00000  -0.00000   0.00000  -0.00000  -0.00000  -0.00000
       z    -0.00000  -0.00000   0.00000   0.00000   0.00000  -0.00000
-------------------------------------------------------------------------------


  Piezoelectric Stress Matrix: (Units=10**-11 C/N)

-------------------------------------------------------------------------------
  Indices      1         2         3         4         5         6    
-------------------------------------------------------------------------------
       x    -0.00000   0.00000   0.00000   0.00000  -0.00000   0.00000
       y     0.00000  -0.00000   0.00000  -0.00000   0.00000  -0.00000
       z    -0.00000   0.00000   0.00000   0.00000   0.00000  -0.00000
-------------------------------------------------------------------------------


  Static dielectric constant tensor : 

-------------------------------------------------------------------------------
              x         y         z
-------------------------------------------------------------------------------
       x    11.29309  -0.00000   0.00000
       y    -0.00000  11.29309  -0.00000
       z     0.00000  -0.00000  16.36434
--------------------------------------------------------------------------------

  High frequency dielectric constant tensor : 

-------------------------------------------------------------------------------
              x         y         z
-------------------------------------------------------------------------------
       x     5.63011  -0.00000   0.00000
       y    -0.00000   5.63011  -0.00000
       z     0.00000  -0.00000   6.08934
-------------------------------------------------------------------------------

  Static refractive indices : 

-------------------------------------------------------------------------------
    1 =    3.36052      2 =    3.36052      3 =    4.04529
-------------------------------------------------------------------------------

  High frequency refractive indices : 

-------------------------------------------------------------------------------
    1 =    2.37279      2 =    2.37279      3 =    2.46766
-------------------------------------------------------------------------------


  Time to end of optimisation =       0.0899 seconds


  Peak dynamic memory used =       0.59 MB 


  Timing analysis for GULP :

--------------------------------------------------------------------------------
  Task / Subroutine                                          Time (Seconds)
--------------------------------------------------------------------------------
  Calculation of reciprocal space energy and derivatives          0.0016
  Calculation of reciprocal space energy using symmetry           0.0025
  Calculation of real space energy and derivatives                0.0216
  Calculation of real space energy using symmetry                 0.0587
  Symmetry generation of equivalent positions                     0.0004
--------------------------------------------------------------------------------
  Total CPU time                                                  0.0899
--------------------------------------------------------------------------------


  Marvin file written as example1.mvn                                          
  XR file written as example1.xr                   


  Job Finished at 09:00.37 29th July       2013                               

