320
Atoms. Timestep: 0
1 4.39861 0.0809956 -1.6196
2 3.65138 0.778109 -1.97822
2 4.72189 -0.655793 -2.40238
2 5.23117 0.689443 -1.27747
2 3.94587 -0.457468 -0.7756
1 8.04668 -1.18772 4.92107
2 8.15822 -0.77586 3.92836
2 -7.6815 -0.938659 5.4788
2 7.24522 -0.61862 5.37118
2 7.87697 -2.29573 4.99922
1 0.535265 2.22317 5.72204
2 1.33081 2.4717 6.43439
2 -0.409711 2.53339 6.09442
2 0.692129 2.74106 4.75799
2 0.473121 1.13423 5.66713
1 -5.52748 4.59617 0.515611
2 -5.71861 3.56949 0.251576
2 -4.60653 4.66525 1.07731
2 -5.41101 5.23219 -0.380271
2 -6.37456 4.97508 1.11867
1 -1.08942 5.75524 -6.84459
2 -1.24054 4.70339 -6.58725
2 -0.446796 6.25217 -6.08461
2 -0.584984 5.7892 6.54922
2 -2.03071 6.27652 -6.82339
1 5.35394 6.91709 -4.53904
2 4.29493 6.96295 -4.27038
2 5.55535 6.10282 -5.2207
2 5.62971 7.85058 -5.03263
2 5.92811 6.7821 -3.60762
1 7.78499 7.47035 6.86775
2 -8.13838 6.70766 6.47725
2 -8.24022 -7.98448 7.13309
2 7.01633 7.72853 6.15144
2 7.3238 7.10032 -6.61129
1 -3.16249 5.64068 -3.01792
2 -3.89992 6.13883 -3.62641
2 -2.29342 5.41739 -3.60732
2 -2.86511 6.31385 -2.2143
2 -3.62526 4.67534 -2.69697
1 -5.05094 -6.91388 3.69839
2 -4.62867 -6.17823 3.01323
2 -5.85687 -6.54411 4.29665
2 -5.4253 -7.75063 3.08774
2 -4.33224 -7.37543 4.33249
1 -6.00419 -3.19171 1.84976
2 -5.37486 -2.26753 2.01877
2 -6.38801 -3.61197 2.77154
2 -6.82633 -2.98872 1.19258
2 -5.31263 -3.96275 1.48269
1 -5.02592 -7.85564 -5.84954
2 -5.76961 7.92574 -5.30359
2 -4.43877 -7.30974 -5.10517
2 -4.3672 7.79642 -6.41792
2 -5.51524 -7.18137 -6.60365
1 5.27576 -3.61745 6.56813
2 4.74506 -2.96234 -7.11461
2 5.53856 -3.13658 5.61907
2 6.19477 -3.99926 6.98757
2 4.63969 -4.44188 6.28986
1 -4.45862 -7.54739 -0.344622
2 -4.62551 -6.77539 0.398739
2 -5.03824 -7.40157 -1.2323
2 -3.39076 -7.61332 -0.581002
2 -4.81033 7.85716 0.0873765
1 -2.69683 2.83609 3.65747
2 -2.82863 1.79617 4.02969
2 -2.68563 2.91191 2.56774
2 -3.44349 3.48701 4.13502
2 -1.73743 3.12978 4.01751
1 4.90328 4.55619 3.48933
2 5.22704 3.60857 3.89538
2 4.04382 4.97736 4.03409
2 5.76619 5.22909 3.63078
2 4.7204 4.42061 2.41188
1 -6.2034 1.34914 3.05776
2 -5.35766 1.98439 3.24374
2 -6.8178 1.23655 3.97138
2 -6.77831 1.8638 2.26618
2 -5.92727 0.323249 2.78892
1 -2.67162 0.70496 -2.89108
2 -2.25182 -0.285535 -3.16709
2 -2.44215 1.39095 -3.71503
2 -3.71807 0.617139 -2.73532
2 -2.18287 1.0697 -1.99894
1 8.12178 5.84088 -1.28828
2 -7.57972 5.69187 -1.8892
2 7.75909 4.87098 -1.10982
2 -8.23805 6.35919 -0.339932
2 7.38359 6.46302 -1.8067
1 -6.52774 5.11406 -5.21984
2 -6.78411 4.12964 -4.82896
2 -5.56583 5.10241 -5.74241
2 -7.3373 5.34043 -5.90369
2 -6.48737 5.86032 -4.39659
1 0.921036 -3.33202 6.36317
2 1.2122 -2.42972 6.94198
2 -0.139139 -3.6307 6.48843
2 1.10532 -3.20189 5.32716
2 1.58603 -4.14111 6.71627
1 1.47172 -7.19366 4.22083
2 1.42613 -6.28669 4.85522
2 1.83303 -6.99375 3.23011
2 2.06983 -7.95741 4.64503
2 0.461079 -7.63352 4.10739
1 0.638284 0.551896 -4.90698
2 0.74627 -0.457042 -5.27749
2 -0.0761001 1.0917 -5.53161
2 0.330902 0.503551 -3.85478
2 1.57686 1.09798 -4.93693
1 4.13367 2.49067 -5.05126
2 3.5038 3.38281 -4.97569
2 4.00673 2.10388 -6.06225
2 5.19388 2.64443 -4.89111
2 3.78911 1.79228 -4.28072
1 -7.8562 -6.48831 -0.414818
2 -7.7921 -6.31776 -1.51443
2 -7.69308 -5.52455 0.116532
2 7.76092 -6.83705 -0.162173
2 -7.2633 -7.31932 -0.0149849
1 1.51551 6.99969 -3.33811
2 1.2819 7.81923 -3.98524
2 2.10763 6.34708 -3.96295
2 2.14416 7.34837 -2.54738
2 0.615514 6.53432 -2.97225
1 2.81326 -6.95657 -6.19769
2 3.63544 -6.77341 -6.87837
2 3.23071 -7.27855 -5.26558
2 2.26903 -6.04947 -6.07242
2 2.17606 -7.73059 -6.60105
1 3.81628 -0.302039 5.33836
2 4.13465 0.276703 6.20427
2 2.89139 0.101078 4.85845
2 4.65338 -0.321263 4.65107
2 3.48468 -1.32099 5.65841
1 7.45304 3.31591 -7.17399
2 7.81945 4.27441 6.83074
2 8.01542 2.54485 6.69384
2 7.61172 3.24735 -6.07904
2 6.39764 3.29488 6.97185
1 -3.74325 3.1758 -7.1793
2 -4.8202 3.15223 6.99413
2 -3.56642 4.00531 -6.46564
2 -3.47295 2.20397 -6.66989
2 -3.15439 3.22004 6.29745
1 -0.649181 -3.28858 -0.927239
2 0.456206 -3.42932 -1.05456
2 -1.03156 -2.63053 -1.69972
2 -1.09528 -4.25267 -0.920917
2 -0.81128 -2.75815 -0.0120399
1 6.20643 -5.68614 -4.77128
2 7.0938 -6.30619 -4.59882
2 5.43331 -5.93998 -4.06285
2 6.47051 -4.60095 -4.69343
2 5.87449 -5.89629 -5.7513
1 -5.9355 0.483708 -6.81543
2 -5.4184 0.836774 -5.91928
2 -5.26423 0.588847 6.71384
2 -6.32218 -0.51986 -6.60543
2 -6.74568 1.13572 -6.99893
1 -4.3546 -1.63877 4.80969
2 -5.30791 -1.44577 4.35188
2 -3.80991 -0.702844 4.94352
2 -4.50068 -2.18869 5.74729
2 -3.78787 -2.23795 4.11618
1 -2.25164 6.76067 3.30131
2 -2.50401 7.34239 2.40063
2 -2.38954 7.39067 4.20148
2 -2.79288 5.84926 3.38073
2 -1.15215 6.59064 3.24805
1 4.76505 3.96755 -2.08938
2 4.01665 4.19688 -2.87864
2 5.44117 4.80643 -1.97582
2 4.23044 3.78197 -1.12592
2 5.27512 3.05991 -2.36164
1 -4.58332 -3.22475 -1.4177
2 -4.40435 -2.17344 -1.56691
2 -5.66053 -3.36151 -1.27594
2 -4.2509 -3.82449 -2.29535
2 -4.02306 -3.50609 -0.536275
1 -7.72386 -4.75511 5.78905
2 -6.8156 -4.62593 5.20438
2 -7.66066 -4.08186 6.66111
2 8.0398 -4.56377 5.13161
2 -7.83394 -5.78778 6.15964
1 7.82046 2.0621 -2.61862
2 6.95479 1.4137 -2.71929
2 -7.92269 1.45042 -2.92544
2 7.6669 2.92097 -3.29084
2 7.96557 2.36104 -1.59078
1 4.08155 -5.47349 -0.49904
2 3.98914 -5.97519 -1.45815
2 4.99235 -4.86167 -0.419511
2 3.27775 -4.74406 -0.439961
2 4.03497 -6.23392 0.277328
1 -1.74464 -7.45434 -3.6904
2 -1.10835 -6.51313 -3.69787
2 -2.80858 -7.20005 -3.4948
2 -1.67278 -7.93649 -4.64454
2 -1.34691 -8.11239 -2.93017
1 -6.53798 4.79881 4.95081
2 -6.40945 5.77888 4.51823
2 -7.59677 4.593 5.03172
2 -6.09782 4.04084 4.28964
2 -6.10086 4.8107 5.96464
1 -0.45998 3.58066 -1.91528
2 -0.851362 3.54937 -2.91686
2 -1.15841 3.21411 -1.2157
2 0.511365 3.04235 -1.8621
2 -0.25014 4.63053 -1.63115
1 1.30773 5.32256 1.85789
2 2.27433 5.84369 1.84473
2 1.05204 4.9838 2.86667
2 0.5472 5.9781 1.49276
2 1.40436 4.45922 1.18455
1 0.783734 -7.60542 -0.40652
2 0.930247 -7.21031 -1.42511
2 0.913111 7.62534 -0.487965
2 1.59318 -7.15282 0.225199
2 -0.232194 -7.37265 -0.0230857
1 7.27775 2.71816 1.17469
2 6.97599 3.66298 0.676109
2 8.24592 2.33214 0.792101
2 7.39843 2.86205 2.27479
2 6.42231 2.07157 1.00073
1 8.05524 -2.44591 -1.99732
2 -7.85753 -2.81938 -2.78773
2 7.06857 -2.87302 -2.14557
2 -8.12919 -2.68334 -1.02089
2 7.96324 -1.35224 -2.03211
1 -1.20737 -5.83859 2.12576
2 -1.55949 -5.52583 1.14951
2 -1.40259 -6.90307 2.24765
2 -0.174275 -5.62821 2.22748
2 -1.7038 -5.30221 2.93479
1 2.04659 -2.29274 -3.8257
2 2.37958 -2.3971 -4.82499
2 0.967296 -2.19227 -3.78249
2 2.36624 -3.17167 -3.34953
2 2.6108 -1.44152 -3.40535
1 2.94838 -2.58388 1.8496
2 2.74491 -3.63768 2.03648
2 3.515 -2.25488 2.71931
2 3.51686 -2.47675 0.961716
2 2.05983 -1.95571 1.77549
1 5.158 -5.76264 3.6602
2 5.76573 -5.14069 3.05015
2 4.34013 -5.16744 4.06488
2 4.71204 -6.55175 3.05255
2 5.70482 -6.24759 4.45192
1 -0.926815 -1.42652 3.82526
2 -1.59335 -0.597065 4.04009
2 0.0718218 -1.04558 3.99681
2 -1.16784 -2.19857 4.55745
2 -1.03505 -1.81991 2.79341
1 -1.68275 -3.41617 -4.90364
2 -2.21568 -3.24804 -5.83672
2 -2.22221 -4.01538 -4.20944
2 -0.776407 -3.95203 -5.12317
2 -1.43757 -2.49566 -4.41963
1 3.01197 5.72502 6.94672
2 3.62882 4.90149 -7.12061
2 2.31184 5.41755 6.21107
2 2.48454 6.12399 -6.5382
2 3.66309 6.516 6.52285
1 6.7438 -0.93482 1.19696
2 7.28705 -0.209277 1.76042
2 7.28023 -1.8989 1.10695
2 5.72707 -1.02912 1.64102
2 6.53875 -0.492685 0.217379
1 7.26855 -1.02789 -5.18316
2 6.60875 -0.546048 -5.896
2 7.25454 -0.381801 -4.32384
2 6.9051 -2.01161 -4.94423
2 8.29733 -1.0494 -5.58168
1 -2.32235 -0.469812 -7.01002
2 -3.0481 -1.24407 -7.03323
2 -2.24556 -0.0232394 -6.02375
2 -1.40793 -0.905735 7.00766
2 -2.6688 0.309413 6.69747
1 8.03798 7.84978 3.16786
2 7.62553 -7.52226 3.48654
2 7.38746 6.99557 3.45872
2 8.14116 7.86212 2.084
2 -7.61281 7.77857 3.64997
1 0.59009 -0.159808 -0.72119
2 1.40525 -0.895552 -0.769836
2 0.0508229 -0.18461 -1.68445
2 -0.0914538 -0.420845 0.0815204
2 1.04636 0.838875 -0.563596
1 5.08589 7.17053 0.644232
2 4.41774 6.79615 -0.0423984
2 5.58734 6.31563 1.13469
2 5.79095 7.83289 0.110882
2 4.52078 7.78067 1.37003
1 1.54346 1.53332 2.48492
2 2.10644 0.989103 1.7449
2 0.836433 2.22181 1.97287
2 0.942406 0.85509 3.08918
2 2.24276 2.17491 3.01608
1 -5.55774 -3.90578 -5.31395
2 -6.51825 -4.13557 -4.86389
2 -4.87398 -4.77391 -5.27446
2 -5.7331 -3.65914 -6.34193
2 -5.11243 -3.07351 -4.73571
1 -6.48103 0.337494 -0.768726
2 -6.33862 -0.0138499 -1.79508
2 -5.85694 1.20558 -0.521143
2 -7.518 0.571128 -0.671888
2 -6.33713 -0.53668 -0.113525
1 -1.2413 -6.80887 6.75209
2 -2.01323 -6.99 -6.91888
2 -0.265072 -6.8616 -7.11534
2 -1.25149 -7.48362 5.9302
2 -1.371 -5.84454 6.3227
1 -2.97644 0.299421 1.19554
2 -3.93561 0.81159 1.22406
2 -2.27482 0.821294 1.82223
2 -3.04034 -0.755017 1.48189
2 -2.59873 0.365095 0.172587
320
Atoms. Timestep: 400
1 4.17634 0.0441698 -1.4592
2 3.33775 0.267888 -2.08495
2 4.74748 -0.845205 -1.78471
2 4.8507 0.87915 -1.4652
2 3.77509 -0.143827 -0.474483
1 8.05737 -1.15404 4.98041
2 7.99545 -0.0798207 4.87514
2 -7.62535 -1.39889 5.49396
2 7.21082 -1.58129 5.49597
2 8.0951 -1.66327 3.99125
1 0.553275 2.59724 5.84264
2 1.36344 1.90471 6.08653
2 0.153961 2.98245 6.76468
2 0.947941 3.42016 5.19922
2 -0.209098 2.08624 5.25575
1 -5.3645 4.54607 0.711726
2 -5.2238 3.4945 0.557897
2 -4.42216 5.01117 0.967472
2 -5.72374 4.98607 -0.227646
2 -6.11185 4.77739 1.4903
1 -0.525951 5.90581 -6.95653
2 -0.428874 5.00553 -6.37752
2 0.25222 6.64831 -6.73533
2 -0.472754 5.70923 6.34775
2 -1.46484 6.30335 -6.65395
1 5.64436 6.54649 -4.63976
2 4.964 6.73271 -3.81247
2 5.79212 5.49183 -4.76606
2 5.25588 6.90555 -5.58537
2 6.60359 7.06637 -4.4235
1 7.83252 7.47512 6.7913
2 -7.88654 7.43649 6.13859
2 -8.4259 7.5867 -6.5583
2 7.23759 8.35727 6.51972
2 7.25894 6.56494 6.67727
1 -3.11142 5.80262 -2.94342
2 -3.95617 5.76821 -3.61329
2 -2.17868 5.80962 -3.46927
2 -3.20642 6.70472 -2.33717
2 -3.17796 4.89628 -2.30553
1 -5.32414 -7.22025 3.93629
2 -5.632 -6.31889 3.36393
2 -6.14134 -7.47887 4.60957
2 -5.06224 -7.99373 3.181
2 -4.42415 -6.98969 4.47617
1 -6.30545 -3.03814 1.77546
2 -6.2073 -2.0582 1.26086
2 -7.1095 -2.96017 2.4859
2 -6.6115 -3.78219 1.09244
2 -5.38835 -3.28296 2.30647
1 -5.10612 -7.66252 -5.84813
2 -6.09308 -7.89436 -5.56418
2 -4.53579 -7.26183 -5.01419
2 -4.55871 7.77999 -6.16727
2 -5.14586 -6.90131 -6.64904
1 5.12749 -3.68415 6.71369
2 5.24617 -2.68487 7.15461
2 4.81849 -3.53714 5.6658
2 6.0681 -4.21687 6.81854
2 4.31599 -4.18186 7.24002
1 -4.13068 -7.61924 -0.126823
2 -4.76881 -7.12102 0.605835
2 -4.2983 -7.20438 -1.11165
2 -3.09674 -7.35227 0.155069
2 -4.32775 7.62252 -0.144425
1 -2.64358 2.79081 3.3617
2 -2.62272 1.69159 3.46807
2 -2.72392 2.98999 2.30053
2 -3.58177 3.18386 3.75544
2 -1.77564 3.28175 3.75874
1 4.81888 4.4477 3.74018
2 5.1944 3.5988 4.24546
2 4.28217 5.01892 4.49358
2 5.6386 5.01431 3.27681
2 4.10581 4.08659 2.98831
1 -5.92361 1.13398 3.0882
2 -5.31889 1.57398 2.33879
2 -5.57732 1.52124 4.04964
2 -6.95837 1.48042 2.96301
2 -5.9952 0.0486298 3.10665
1 -2.70687 0.700141 -3.13729
2 -2.56286 -0.401152 -3.01306
2 -1.96745 1.15492 -3.81859
2 -3.64515 0.838533 -3.62461
2 -2.73086 1.16924 -2.15897
1 8.04166 5.89302 -1.33392
2 -7.86417 5.15934 -1.77147
2 7.09675 5.47383 -1.10061
2 -8.12923 6.36024 -0.439094
2 7.82522 6.69528 -2.03854
1 -6.40387 4.83472 -4.80923
2 -7.17231 4.09397 -4.96598
2 -5.40666 4.42873 -4.96322
2 -6.46636 5.66101 -5.48354
2 -6.45791 5.22607 -3.78384
1 0.92349 -3.56852 6.43992
2 1.32345 -2.56957 6.64908
2 -0.166209 -3.54416 6.39551
2 1.17156 -3.82859 5.45942
2 1.304 -4.20482 7.23697
1 1.77758 -6.54659 3.98134
2 1.91336 -5.47359 3.72707
2 2.13214 -7.20359 3.19298
2 2.22992 -6.64933 4.94613
2 0.675691 -6.70199 4.09333
1 0.384527 0.852781 -5.54371
2 0.938664 0.646944 -6.44919
2 -0.52708 1.37121 -5.82591
2 0.225666 -0.115024 -5.042
2 0.994923 1.45444 -4.8793
1 3.93568 2.29188 -5.25942
2 3.03234 2.85415 -5.53989
2 4.02227 1.40419 -5.89133
2 4.78143 2.96105 -5.38628
2 3.81841 1.98477 -4.20981
1 -8.10031 -6.56877 -0.598626
2 -7.30018 -5.89685 -0.901984
2 -8.59743 -6.24309 0.324851
2 7.80924 -6.57055 -1.40527
2 -7.71524 -7.54714 -0.384443
1 1.7628 6.45758 -3.56341
2 1.46417 7.04318 -4.44782
2 1.81331 5.34341 -3.67562
2 2.77042 6.77712 -3.25988
2 1.12872 6.73971 -2.70904
1 2.96005 -6.89081 -6.00692
2 3.88104 -6.81492 -6.61948
2 3.12178 -7.57829 -5.15965
2 2.64878 -5.88573 -5.69311
2 2.18722 -7.33719 -6.67017
1 3.79506 -0.40376 4.81001
2 4.68917 -0.0703292 5.28087
2 3.16437 0.44068 4.54133
2 4.07518 -0.811288 3.88102
2 3.1871 -1.13548 5.35372
1 7.93181 3.21553 -7.22673
2 7.96375 4.21225 -6.77644
2 -7.83503 2.97527 6.52159
2 7.86502 2.46954 -6.41534
2 7.03448 3.15395 6.56038
1 -3.46044 3.49245 -7.19603
2 -4.33996 2.95012 6.86771
2 -3.32432 4.42322 6.65319
2 -3.52773 3.70791 -6.11542
2 -2.58842 2.90611 7.05479
1 -0.908286 -3.28809 -1.01005
2 0.0768434 -3.45865 -0.490819
2 -0.753422 -2.82901 -1.99303
2 -1.3263 -4.25236 -1.21841
2 -1.58461 -2.67804 -0.422995
1 6.19621 -5.5966 -4.64409
2 7.2176 -5.65744 -4.24967
2 5.54205 -6.22437 -4.04558
2 5.83915 -4.53492 -4.67914
2 6.17128 -5.97999 -5.6355
1 -5.89807 0.527393 -6.76044
2 -4.82926 0.618234 -6.46725
2 -6.04399 1.15047 6.72382
2 -6.22371 -0.520881 -6.95691
2 -6.47753 0.850142 -5.91598
1 -4.52406 -1.73732 4.63179
2 -5.51497 -1.94141 4.25298
2 -4.13388 -0.830422 4.13997
2 -4.58848 -1.54009 5.71865
2 -3.8619 -2.59551 4.5226
1 -2.28912 6.6124 3.38461
2 -2.90742 6.69703 2.49676
2 -2.44096 7.52587 3.99025
2 -2.74907 5.81506 3.8738
2 -1.22483 6.45583 3.17313
1 4.3541 4.19191 -1.88932
2 3.40392 4.03919 -2.43014
2 4.36227 5.20248 -1.5456
2 4.37597 3.484 -1.06645
2 5.17899 4.08032 -2.55822
1 -4.28208 -3.46406 -1.49776
2 -3.86183 -2.64536 -2.05328
2 -5.36071 -3.36951 -1.37963
2 -4.15444 -4.4245 -2.03171
2 -3.82014 -3.49964 -0.519751
1 -7.56359 -4.91003 6.10736
2 -6.74748 -4.21934 6.08076
2 -8.30853 -4.56789 6.81577
2 -8.00081 -4.9241 5.11966
2 -7.29811 -5.91894 6.4179
1 7.7659 2.08398 -2.96591
2 6.85021 1.5115 -2.98367
2 -8.08557 1.53678 -3.54109
2 7.59694 3.04431 -3.43513
2 8.10343 2.24172 -1.95469
1 4.17624 -5.59275 -0.18671
2 4.75708 -6.48524 0.0443899
2 4.19323 -5.42962 -1.28795
2 3.14383 -5.66922 0.183462
2 4.56922 -4.71085 0.336739
1 -1.45985 -7.29946 -3.66542
2 -1.07919 -6.71106 -4.53344
2 -2.04393 -6.66317 -2.98042
2 -2.03863 8.26163 -4.06667
2 -0.617606 -7.69993 -3.15064
1 -6.35524 4.75144 4.67936
2 -5.77112 5.47488 4.11999
2 -7.27573 4.55288 4.15067
2 -5.81156 3.80831 4.82846
2 -6.56246 5.21605 5.65071
1 -0.526828 3.42798 -1.51438
2 -1.00136 3.55975 -2.47266
2 -1.2041 2.98093 -0.829285
2 0.416351 2.82617 -1.58401
2 -0.317795 4.45909 -1.11941
1 1.58304 5.35746 1.66684
2 1.71343 5.96107 2.56738
2 0.855201 4.57101 1.84865
2 1.17749 6.00131 0.913803
2 2.57239 4.93824 1.39533
1 0.848989 -7.37016 -0.495713
2 0.998924 -6.76799 -1.35277
2 1.71683 8.36868 -0.291774
2 0.667954 -6.74045 0.362185
2 0.0373485 -8.04182 -0.675528
1 7.21778 2.97005 1.85483
2 6.92333 3.92419 1.46348
2 8.01584 2.56796 1.26092
2 7.68557 3.13588 2.82194
2 6.41071 2.29925 1.98036
1 7.92437 -2.58314 -2.12955
2 -7.93731 -2.61393 -2.93357
2 7.22741 -3.34768 -2.37715
2 -8.14571 -2.84387 -1.24603
2 7.51301 -1.58054 -2.02604
1 -1.53762 -6.03382 2.25818
2 -2.48544 -5.83078 1.74575
2 -1.1257 -6.99219 1.88597
2 -0.870855 -5.21928 2.04153
2 -1.65862 -6.11854 3.35917
1 2.33275 -2.4236 -3.87723
2 2.24349 -2.8851 -4.86062
2 1.32057 -2.38818 -3.41401
2 2.95466 -3.03133 -3.22941
2 2.74983 -1.36688 -3.95656
1 2.59767 -2.77267 1.80526
2 1.7096 -3.20851 2.2857
2 3.48935 -3.10524 2.35627
2 2.59267 -3.13643 0.789326
2 2.51679 -1.67916 1.74386
1 5.10429 -5.57601 3.64498
2 4.88443 -4.61126 3.20526
2 4.4794 -5.73136 4.54935
2 4.91032 -6.3652 2.89803
2 6.15582 -5.62464 3.9576
1 -0.752403 -1.63697 3.8031
2 -0.778946 -0.565662 3.64619
2 0.243407 -1.99348 4.02109
2 -1.46012 -1.82748 4.60825
2 -1.10556 -2.16233 2.89984
1 -1.44647 -3.59341 -4.65196
2 -1.5481 -4.05373 -5.66275
2 -2.17478 -3.99524 -3.92992
2 -0.425442 -3.79665 -4.28689
2 -1.65684 -2.51204 -4.67831
1 3.02429 5.91268 6.83335
2 3.56147 4.98555 6.88334
2 2.1391 5.84774 6.23477
2 2.73625 6.16041 -6.4918
2 3.70279 6.71688 6.47141
1 6.80257 -1.05505 1.26471
2 7.36815 -0.505795 1.96157
2 7.17723 -2.07407 1.36113
2 5.76016 -1.10028 1.62505
2 6.92587 -0.71451 0.239941
1 7.13853 -0.976307 -5.21816
2 6.67403 -0.0484791 -5.56758
2 7.83528 -0.772194 -4.41039
2 6.42589 -1.73449 -4.88546
2 7.71214 -1.47457 -6.02212
1 -2.26473 -0.806541 -6.97059
2 -2.59809 -1.76903 7.03767
2 -2.48492 -0.671666 -5.8927
2 -1.18278 -0.75943 7.23649
2 -2.81593 -0.0269457 6.83214
1 7.92803 8.11663 3.13447
2 8.56326 -7.32918 3.08773
2 6.89955 8.42727 3.40439
2 7.8907 7.65109 2.15668
2 -8.2318 7.44147 3.84811
1 0.607694 -0.148834 -0.744789
2 1.2359 -1.03173 -0.701193
2 -0.222283 -0.263753 -1.42279
2 0.287032 0.100469 0.238159
2 1.24648 0.663438 -1.09993
1 5.22663 7.03742 0.819183
2 4.42718 6.58731 0.319272
2 6.00194 6.29264 1.10439
2 5.7559 7.72177 0.132493
2 4.81822 7.63123 1.6871
1 1.59914 1.59039 2.22043
2 2.118 0.839882 1.65317
2 0.747337 1.99202 1.62557
2 1.27231 1.13904 3.15895
2 2.26097 2.42565 2.45668
1 -5.94764 -3.80227 -5.27184
2 -6.91759 -4.13044 -5.64513
2 -5.49389 -4.61457 -4.67518
2 -5.29174 -3.53433 -6.08231
2 -6.06475 -2.92497 -4.62439
1 -6.38124 0.0623697 -0.535663
2 -6.97633 -0.405801 -1.32985
2 -6.39512 1.10737 -0.831272
2 -6.77295 -0.0738584 0.455669
2 -5.347 -0.315947 -0.629963
1 -1.1912 -6.77205 6.64254
2 -2.12646 -6.81615 -7.19313
2 -0.410945 -6.78103 -6.91302
2 -1.11872 -7.6857 6.03431
2 -1.12329 -5.91243 5.95297
1 -2.85369 -0.0437188 0.89344
2 -3.10431 0.957573 0.514914
2 -1.86146 -0.0476689 1.32229
2 -3.5949 -0.313698 1.6494
2 -2.872 -0.777479 0.0744894
320
Atoms. Timestep: 800
1 4.18942 -0.0155229 -1.26167
2 3.70118 -0.251403 -2.1993
2 4.99775 -0.785274 -1.17288
2 4.68203 0.957227 -1.30123
2 3.49339 -0.115412 -0.425688
1 7.92113 -1.33799 5.32256
2 7.22033 -0.549628 5.48993
2 -7.86521 -1.33437 6.05355
2 7.45488 -2.30726 5.23664
2 8.32198 -1.14774 4.30577
1 0.741109 3.13766 5.66705
2 1.25192 2.26167 5.30026
2 1.37408 3.58635 6.40505
2 0.540607 3.84656 4.83178
2 -0.22054 2.90428 6.07721
1 -5.19005 4.42136 0.80567
2 -4.698 3.47189 0.822133
2 -4.56869 5.1475 1.32254
2 -5.3913 4.67134 -0.244391
2 -6.14189 4.33274 1.35675
1 -0.438554 6.33146 -6.74586
2 -0.508579 5.73476 -5.84057
2 0.508219 6.91859 -6.77964
2 -0.460394 5.67643 6.74047
2 -1.32247 6.95981 -6.79067
1 6.13527 6.06466 -4.60204
2 5.4509 6.63961 -3.98485
2 6.16193 5.08846 -4.16708
2 5.83235 6.05097 -5.64556
2 7.15121 6.53416 -4.53919
1 7.98132 7.69048 6.72816
2 -7.98695 -7.74136 6.73798
2 -8.07611 6.76787 6.7406
2 7.32345 7.72962 -6.769
2 7.3775 7.7321 5.84138
1 -2.88917 5.95695 -2.76593
2 -3.30599 6.4103 -3.67214
2 -1.90724 5.56765 -2.96847
2 -2.80627 6.70363 -1.96271
2 -3.53518 5.15781 -2.33842
1 -5.21211 -7.52335 4.16601
2 -5.91386 -6.68801 3.99832
2 -5.77889 8.02703 4.65184
2 -4.79177 -7.88936 3.21623
2 -4.47024 -7.1717 4.84548
1 -6.66641 -3.47563 1.59507
2 -6.4465 -2.57322 0.955226
2 -7.70389 -3.3993 1.95233
2 -6.52934 -4.33279 0.974023
2 -5.89442 -3.56131 2.37066
1 -5.14928 -7.53853 -5.8884
2 -6.17224 -7.2646 -5.8565
2 -4.5626 -7.18952 -5.01611
2 -5.10981 7.69092 -5.928
2 -4.72028 -7.0633 -6.79961
1 4.61084 -3.50997 6.90902
2 5.61014 -3.0943 7.07136
2 4.15336 -2.97162 6.0722
2 4.76119 -4.54749 6.67832
2 4.012 -3.45868 -6.55929
1 -3.89802 -7.79723 -0.0486819
2 -3.98862 -7.2092 0.852717
2 -4.03942 -7.14825 -0.891579
2 -2.907 -8.25994 -0.108023
2 -4.61421 7.6968 -0.0528802
1 -2.31184 2.83256 3.01125
2 -1.99291 1.81497 3.3009
2 -2.54479 2.82421 1.94957
2 -3.19063 3.15111 3.57261
2 -1.5141 3.53112 3.23831
1 4.62353 4.36365 4.05476
2 4.79368 3.99943 5.03682
2 3.57859 4.70565 4.01091
2 5.26938 5.21736 3.78064
2 4.74797 3.61977 3.2394
1 -5.93384 1.14751 3.07976
2 -5.74843 1.9697 2.42351
2 -5.01687 0.55572 3.1883
2 -6.3585 1.40031 4.07563
2 -6.66773 0.516839 2.55575
1 -2.8367 0.660459 -3.29627
2 -2.78989 -0.391761 -2.94381
2 -1.83121 1.09274 -3.33725
2 -3.29772 0.74609 -4.2512
2 -3.39188 1.19532 -2.54676
1 8.00949 5.77735 -1.27307
2 -8.29979 4.75083 -1.56479
2 6.97963 5.95645 -1.48697
2 8.16709 5.83676 -0.194342
2 -7.9719 6.46817 -1.82957
1 -6.27135 4.65912 -4.34132
2 -7.3354 4.50299 -4.49022
2 -5.77914 3.67439 -4.47591
2 -5.83973 5.39347 -5.00015
2 -6.1626 4.97875 -3.28531
1 0.988097 -3.76553 6.8024
2 1.62258 -2.86052 6.66877
2 -0.0822953 -3.49273 6.78344
2 1.17536 -4.5037 6.06436
2 1.19706 -4.13087 -6.56015
1 1.86595 -6.17261 3.60179
2 1.60632 -5.67174 2.6579
2 2.34293 -7.08203 3.32097
2 2.56772 -5.54583 4.08018
2 0.988368 -6.39636 4.2389
1 0.336358 0.902499 -5.56339
2 1.27972 0.791793 -6.10183
2 -0.436022 1.1629 -6.27688
2 -0.00988875 -0.0529573 -5.11544
2 0.431321 1.71024 -4.83965
1 3.79805 2.09662 -5.75431
2 3.0242 2.65294 -6.29759
2 4.13698 1.20111 -6.26315
2 4.61577 2.79362 -5.67754
2 3.49579 1.77812 -4.76045
1 -8.32617 -6.59182 -0.710814
2 -7.89845 -5.89516 0.0127742
2 7.246 -6.83498 -0.424691
2 8.36171 -6.09709 -1.67842
2 -7.71212 -7.47664 -0.576902
1 1.82484 5.91743 -3.69209
2 1.34269 6.71826 -4.20783
2 1.38784 4.96928 -4.00038
2 2.89149 5.96201 -3.7968
2 1.55026 5.99075 -2.66279
1 2.89497 -6.83186 -6.04411
2 3.54842 -7.39629 -6.68871
2 2.91208 -7.24769 -5.0542
2 3.21884 -5.81981 -5.95323
2 1.87505 -6.83872 -6.41026
1 3.87259 -0.4507 4.29326
2 4.7761 -0.943307 4.67345
2 4.11589 0.641087 4.35184
2 3.59079 -0.778041 3.29952
2 3.07625 -0.776142 5.01875
1 8.08101 3.05673 6.98566
2 7.3509 3.83061 -7.11931
2 -7.51687 3.43925 7.04192
2 7.96876 2.223 -6.66858
2 7.94887 2.70376 5.97392
1 -2.92642 3.92376 7.10985
2 -3.97889 3.59457 -7.28078
2 -2.5295 3.83129 6.091
2 -2.83293 5.00602 -6.98039
2 -2.32264 3.23567 -6.69038
1 -0.834191 -3.60834 -0.91991
2 0.163434 -3.90659 -0.531779
2 -0.698567 -2.86482 -1.71113
2 -1.38058 -4.44003 -1.30726
2 -1.41861 -3.25047 -0.0815426
1 6.33972 -5.62742 -4.50211
2 7.07086 -5.38254 -3.73248
2 5.76792 -6.48443 -4.15445
2 5.64927 -4.75825 -4.54573
2 6.79791 -5.79474 -5.4587
1 -6.15505 0.395484 -6.51871
2 -5.11321 0.726065 -6.5713
2 -6.66065 0.578694 6.92298
2 -6.15066 -0.702254 -6.47458
2 -6.6618 0.778077 -5.67025
1 -4.66077 -2.01315 4.83248
2 -5.62968 -2.21621 4.43871
2 -3.94553 -1.92308 4.00957
2 -4.67796 -1.03642 5.34125
2 -4.33171 -2.77451 5.52309
1 -2.31879 6.48459 3.44481
2 -3.12816 6.31779 2.72394
2 -2.08465 7.58396 3.59809
2 -2.56022 5.9886 4.3449
2 -1.40135 6.01996 3.07795
1 3.93031 4.40009 -1.44296
2 3.74149 3.36355 -1.83997
2 2.9959 4.92755 -1.26749
2 4.48 4.30318 -0.514262
2 4.52371 4.98319 -2.14653
1 -4.45328 -3.65643 -1.55325
2 -3.6374 -3.07593 -1.95536
2 -5.3941 -3.48058 -2.07803
2 -4.14491 -4.71419 -1.64222
2 -4.58406 -3.41045 -0.500529
1 -7.51363 -5.0231 6.17534
2 -6.94342 -4.1086 6.04434
2 8.04742 -4.80197 6.42682
2 -7.51446 -5.60402 5.2348
2 -7.04364 -5.56398 7.01884
1 7.66944 2.18248 -3.24103
2 6.94577 1.36802 -3.1371
2 -8.0956 1.9337 -3.91151
2 7.19746 3.07698 -3.63224
2 8.0566 2.44036 -2.25648
1 4.30691 -5.62677 0.0413039
2 5.31432 -5.31287 0.144089
2 4.351 -6.70837 0.0309926
2 3.72476 -5.17673 0.829479
2 3.90017 -5.28624 -0.894377
1 -1.17323 -7.16472 -3.8023
2 -1.08902 -6.64572 -4.8018
2 -0.879922 -6.43056 -3.00576
2 -2.17845 -7.4423 -3.63737
2 -0.496334 -8.00427 -3.70168
1 -5.9972 4.77237 4.38221
2 -5.15363 5.16141 3.80387
2 -6.77585 4.46987 3.70032
2 -5.67194 3.88644 4.94818
2 -6.33433 5.48662 5.13383
1 -0.508083 3.4076 -1.07309
2 -1.02542 3.17892 -1.96353
2 -0.611944 2.61322 -0.391353
2 0.566062 3.39228 -1.33264
2 -0.838922 4.39941 -0.68245
1 1.73447 5.60018 1.36596
2 1.28559 5.97606 2.28746
2 1.07123 4.86553 0.918183
2 1.8975 6.38145 0.640276
2 2.68867 5.06827 1.57858
1 0.81194 -7.15906 -0.508668
2 1.15228 -6.60186 -1.39485
2 1.61566 -7.42638 0.214836
2 0.0363075 -6.56037 0.035143
2 0.298837 -8.07791 -0.871306
1 7.32281 3.13279 2.17321
2 7.13378 3.82051 1.32481
2 8.19954 2.51461 1.89546
2 7.39391 3.73117 3.12426
2 6.53803 2.37625 2.2905
1 7.85632 -2.87172 -2.04306
2 -7.94373 -3.34433 -2.65077
2 6.97115 -3.48689 -2.05147
2 8.09829 -2.68394 -1.00312
2 7.55961 -1.91202 -2.51101
1 -1.97622 -6.01018 2.5679
2 -3.02107 -5.73469 2.5775
2 -1.85298 -7.00944 2.12942
2 -1.44495 -5.31568 1.95887
2 -1.64927 -6.01044 3.6181
1 2.68448 -2.54503 -3.9858
2 2.09481 -3.42368 -4.09117
2 2.21049 -1.92334 -3.23312
2 3.68245 -2.74447 -3.69165
2 2.65955 -1.93337 -4.90663
1 2.10486 -2.78303 1.54957
2 1.32988 -3.15297 2.22308
2 3.10137 -3.05804 1.90658
2 1.9843 -3.15869 0.541193
2 2.02014 -1.69755 1.55862
1 5.44867 -5.50497 3.61768
2 4.78906 -4.76193 4.02792
2 6.00108 -6.01017 4.41801
2 4.90633 -6.21647 3.01333
2 6.16032 -4.9659 3.00391
1 -0.579467 -1.70763 3.64665
2 0.24222 -1.08857 3.28435
2 -0.239038 -2.37786 4.42354
2 -1.42937 -1.13499 4.02891
2 -0.863968 -2.3801 2.82102
1 -1.27708 -3.8881 -4.49507
2 -1.39036 -4.24377 -5.50886
2 -2.2238 -4.06704 -4.00961
2 -0.43701 -4.37015 -4.03496
2 -1.09342 -2.83367 -4.60068
1 3.273 5.99177 6.94632
2 3.51739 4.96537 7.08679
2 2.56928 6.05895 6.14657
2 2.82124 6.43184 -6.51153
2 4.17507 6.55402 6.65044
1 6.80062 -1.00088 1.30196
2 7.64653 -0.472094 1.68979
2 7.00107 -2.08496 1.2312
2 5.86214 -0.829773 1.8941
2 6.69865 -0.656355 0.268532
1 7.07899 -0.914523 -5.51951
2 7.00998 0.150759 -5.38039
2 7.97207 -1.33931 -5.07298
2 6.20097 -1.36618 -5.05543
2 7.0207 -1.08932 -6.59582
1 -2.10364 -1.12951 -7.19019
2 -2.88005 -1.84786 -7.01133
2 -2.202 -0.367008 -6.40681
2 -1.11343 -1.55613 -7.12062
2 -2.20941 -0.683349 6.18351
1 7.91998 -8.13731 2.8539
2 -8.49231 -7.06696 2.98456
2 6.99769 -8.34239 3.42054
2 7.71816 7.92994 1.82283
2 -7.95316 7.49359 3.23831
1 0.465888 -0.189254 -1.06981
2 1.24629 -0.895444 -1.41286
2 -0.380099 -0.243672 -1.74829
2 0.150494 -0.4657 -0.070172
2 0.829739 0.863333 -1.01139
1 5.13399 6.98667 0.957079
2 4.2019 6.99238 0.502473
2 5.48993 5.97329 1.11535
2 5.8988 7.46576 0.365613
2 5.04356 7.43512 1.97629
1 1.93191 1.86637 2.14511
2 2.88979 1.52251 1.81488
2 1.36544 2.22297 1.2671
2 1.41892 1.03989 2.62636
2 2.00038 2.59488 2.95916
1 -6.19399 -3.61755 -4.93654
2 -7.2364 -3.94718 -4.97097
2 -5.72911 -4.21008 -4.14269
2 -5.70189 -3.78836 -5.87634
2 -6.0976 -2.55643 -4.75549
1 -6.32145 0.107957 -0.746815
2 -7.22383 -0.513942 -0.873619
2 -6.59274 1.15425 -0.784709
2 -5.88807 -0.059222 0.212723
2 -5.53047 -0.0469139 -1.50533
1 -1.23994 -6.655 6.53127
2 -2.12573 -6.71329 7.09434
2 -0.350944 -6.70116 -7.1879
2 -1.21172 -7.4553 5.80098
2 -1.18887 -5.68667 6.05049
1 -2.94147 -0.399574 0.641921
2 -2.58275 0.330874 -0.0954337
2 -2.15673 -0.767935 1.27249
2 -3.63203 0.135951 1.28023
2 -3.46947 -1.23753 0.17657
320
Atoms. Timestep: 1200
1 4.23185 -0.030098 -1.28149
2 3.74878 0.607539 -1.99562
2 4.32285 -1.04066 -1.73018
2 5.19657 0.395795 -1.01467
2 3.65205 -0.0629161 -0.373109
1 7.92174 -1.64078 5.1754
2 7.23747 -0.849517 5.34815
2 -8.30292 -1.92918 6.17353
2 7.32978 -2.47611 4.84413
2 -7.87087 -1.31535 4.50285
1 0.879993 3.64799 5.5414
2 0.876771 2.57668 5.36095
2 1.88531 4.04753 5.48234
2 0.203506 4.18787 4.81127
2 0.555507 3.82938 6.55779
1 -5.10289 4.28661 0.519723
2 -4.33194 3.59072 0.790899
2 -5.06702 5.16579 1.16669
2 -4.9711 4.60683 -0.518031
2 -6.08336 3.79073 0.631518
1 -0.419499 6.7424 -6.54795
2 -0.603884 5.79045 -6.08272
2 0.604786 7.03793 -6.26168
2 -0.511952 6.60131 6.74377
2 -1.09669 7.53543 -6.26467
1 6.50524 5.68364 -4.54189
2 6.00917 6.6109 -4.78525
2 5.91732 5.13257 -3.83637
2 6.64576 5.14618 -5.47035
2 7.51027 5.90275 -4.08155
1 8.13721 7.6914 6.58596
2 -7.53831 -8.05653 6.66736
2 7.94992 7.49657 5.54778
2 8.27348 6.72905 -7.26325
2 7.30361 -8.07455 6.98013
1 -2.58525 5.87163 -2.7894
2 -2.90422 6.51903 -3.60026
2 -2.09105 5.0694 -3.27481
2 -1.90654 6.41614 -2.13181
2 -3.45026 5.52413 -2.21981
1 -4.84141 -7.66701 4.42066
2 -5.07098 -6.6059 4.16402
2 -5.57522 -8.12353 5.077
2 -4.90949 8.04298 3.51669
2 -3.87808 -7.77936 4.87221
1 -6.94774 -3.90396 1.54942
2 -7.03043 -2.81138 1.4229
2 -7.90786 -4.28966 1.8751
2 -6.5787 -4.35979 0.673295
2 -6.23476 -4.12002 2.3214
1 -5.20322 -7.38352 -5.9358
2 -6.05153 -6.83574 -5.6424
2 -4.36613 -7.14239 -5.25521
2 -5.47382 7.88867 -5.88877
2 -4.90323 -7.15536 -6.96645
1 4.42038 -3.47801 6.81333
2 5.45312 -3.63069 6.4472
2 3.91685 -2.72171 6.19839
2 3.82933 -4.36685 6.70262
2 4.37241 -3.20084 -6.51159
1 -3.89786 -8.08019 0.0198001
2 -4.40662 -7.22492 0.438731
2 -3.54368 -7.81435 -0.965173
2 -3.09473 7.87936 0.669578
2 -4.59703 7.39354 -0.0677645
1 -1.96879 2.66775 2.63362
2 -1.90491 1.86472 3.38205
2 -2.15286 2.2487 1.64599
2 -2.69197 3.40478 2.96357
2 -0.99468 3.16121 2.65329
1 4.29651 4.27872 4.20406
2 4.15365 3.90904 5.17187
2 3.36354 4.52831 3.68154
2 4.89807 5.18774 4.28994
2 4.89742 3.57189 3.59482
1 -6.07436 0.879614 3.31771
2 -5.72182 1.85253 3.56742
2 -5.33597 0.197868 2.88184
2 -6.44098 0.390572 4.22784
2 -6.84468 1.06432 2.56138
1 -3.0757 0.671472 -3.45032
2 -3.03211 -0.323596 -2.94864
2 -2.19772 1.2258 -3.08237
2 -3.03541 0.539679 -4.51881
2 -3.96178 1.22692 -3.16537
1 8.06675 5.65632 -1.07891
2 8.17975 4.55367 -1.16105
2 7.15501 5.93127 -1.58655
2 7.96319 5.91423 -0.0338431
2 -7.66111 6.11746 -1.51058
1 -6.04741 4.52833 -3.96234
2 -6.72259 5.16571 -4.49355
2 -6.39925 3.493 -4.15177
2 -5.07905 4.71802 -4.35927
2 -6.08638 4.74245 -2.88524
1 1.05169 -3.86463 -7.19014
2 1.51035 -2.88495 6.90861
2 -0.0502525 -3.81789 7.08358
2 1.5079 -4.60862 6.57732
2 1.32066 -4.20653 -6.18523
1 1.79214 -6.05408 3.19578
2 0.980891 -6.17146 2.43013
2 2.56993 -6.78242 2.98364
2 2.27639 -5.0894 3.24762
2 1.39126 -6.30576 4.20646
1 0.370577 0.876855 -5.37703
2 1.0535 0.0591982 -5.62331
2 -0.150448 1.25744 -6.23434
2 -0.397023 0.502102 -4.68111
2 0.945267 1.66729 -4.92538
1 3.94777 1.99896 -6.15257
2 3.21028 2.40382 -6.8643
2 4.40507 1.1152 -6.59172
2 4.69911 2.75261 -5.95017
2 3.46999 1.67014 -5.23515
1 8.07771 -6.75357 -0.825038
2 7.20139 -6.51884 -0.214753
2 7.70774 -7.25712 -1.73561
2 -7.99677 -5.894 -1.21669
2 -7.79337 -7.37158 -0.341311
1 1.80747 5.56582 -3.87566
2 1.97162 6.61458 -4.13007
2 0.931755 5.28372 -4.50798