LAMMPS data file via write_data, version 10 Feb 2015, timestep = 80000

320 atoms
2 atom types
256 bonds
1 bond types
384 angles
1 angle types

-8.2970020000000009e+00 8.3174030000000005e+00 xlo xhi
-8.1455009999999994e+00 8.1828990000000008e+00 ylo yhi
-7.2012999999999998e+00 7.1734999999999998e+00 zlo zhi

Masses

1 12.011
2 1.008

Pair Coeffs # lj/cut/coul/cut

1 0.066 3.5
2 0.03 2.5

Bond Coeffs # harmonic

1 340 1.09

Angle Coeffs # harmonic

1 33 107.8

Atoms # full

267 1 2 5.9999999999999998e-02 -5.6345311249600112e+00 -6.6702839514345973e+00 -4.2431192571380789e+00 1 0 0
266 1 1 -2.3999999999999999e-01 -5.1033971991415479e+00 -6.0681148269998504e+00 -4.9686335745673871e+00 1 0 0
269 1 2 5.9999999999999998e-02 -5.1263338697840330e+00 -6.5033946543009948e+00 -5.9522094351232768e+00 1 0 0
268 1 2 5.9999999999999998e-02 -4.0658990665339330e+00 -5.9398135074265355e+00 -4.6210148262238357e+00 1 0 0
16 1 1 -2.3999999999999999e-01 -7.4005780123848863e+00 -4.7500922742145057e+00 -2.5328562521829299e+00 0 0 1
20 1 2 5.9999999999999998e-02 -7.2783571379972942e+00 -4.1173189122396323e+00 -3.3922065738169165e+00 0 0 1
270 1 2 5.9999999999999998e-02 -5.6087551503985891e+00 -5.0831549482275102e+00 -5.0131198177058414e+00 1 0 0
109 1 2 5.9999999999999998e-02 -5.2755303781594831e+00 -2.2175835880023422e+00 -4.3090945017590947e+00 0 -1 0
106 1 1 -2.3999999999999999e-01 -5.2654571983713838e+00 -1.1291944875385271e+00 -4.4159008035806098e+00 0 -1 0
284 1 2 5.9999999999999998e-02 -1.6156099731696307e+00 -5.0795704642480235e+00 -2.3552719983523325e+00 1 0 -1
281 1 1 -2.3999999999999999e-01 -7.3416246728949364e-01 -5.6279971954413250e+00 -2.6569261320483153e+00 1 0 -1
15 1 2 5.9999999999999998e-02 -1.2442524005408853e+00 -2.2765424850438727e+00 -1.9315872223868276e+00 0 -1 0
55 1 2 5.9999999999999998e-02 -3.6379159099786156e+00 -3.3222944535853833e+00 -6.3880537845900420e+00 0 0 0
51 1 1 -2.3999999999999999e-01 -2.5497466933908073e+00 -3.3076205414331090e+00 -6.4337089293222087e+00 0 0 0
283 1 2 5.9999999999999998e-02 1.3413409738114002e-01 -4.9785529780097075e+00 -2.4227977966328806e+00 1 0 -1
110 1 2 5.9999999999999998e-02 -6.2543322197359998e+00 -6.8110846770597022e-01 -4.6040625262148414e+00 0 -1 0
11 1 1 -2.3999999999999999e-01 -1.7486860721098731e+00 -1.7391840069723461e+00 -2.7319023325817815e+00 0 -1 0
108 1 2 5.9999999999999998e-02 -4.5930811781934944e+00 -9.1909094410959968e-01 -5.2451739926835019e+00 0 -1 0
14 1 2 5.9999999999999998e-02 -1.0790781136253995e+00 -1.7153578870512356e+00 -3.6079565886338321e+00 0 -1 0
142 1 2 5.9999999999999998e-02 -7.6842346722323391e+00 -3.2798032798489665e+00 -7.0767565786886371e+00 1 0 0
141 1 1 -2.3999999999999999e-01 -6.8059076600905444e+00 -3.0841471904605662e+00 6.6759584206796401e+00 1 0 -1
143 1 2 5.9999999999999998e-02 -6.5029401793567185e+00 -3.9320028468021340e+00 6.0916258793653597e+00 1 0 -1
12 1 2 5.9999999999999998e-02 -1.9591347791735951e+00 -7.1254171589512305e-01 -2.4231516665315733e+00 0 -1 0
54 1 2 5.9999999999999998e-02 -2.2133193342450732e+00 -4.3039461945066275e+00 -6.1561363038654200e+00 0 0 0
19 1 2 5.9999999999999998e-02 -8.2444682588924216e+00 -4.3371509436052511e+00 -1.9222291902037869e+00 0 0 1
282 1 2 5.9999999999999998e-02 -7.5833355755978749e-01 -5.8691930257697926e+00 -3.7256196999662148e+00 1 0 -1
17 1 2 5.9999999999999998e-02 -6.4778519780661803e+00 -4.7896963703202120e+00 -1.9123113589144198e+00 0 0 1
145 1 2 5.9999999999999998e-02 -5.9560581869633076e+00 -2.7828366379164078e+00 -7.0840834176403460e+00 1 0 0
13 1 2 5.9999999999999998e-02 -2.6737989332964340e+00 -2.2441971955501447e+00 -3.0585960510824517e+00 0 -1 0
52 1 2 5.9999999999999998e-02 -2.1865927728948491e+00 -2.5585221376494505e+00 -5.6864307628971407e+00 0 0 0
46 1 1 -2.3999999999999999e-01 -5.6010590607237800e+00 -2.2641364089231435e+00 3.5834607893172422e-02 0 0 0
50 1 2 5.9999999999999998e-02 -5.9466079008382531e+00 -1.2975631290198222e+00 2.8129758616509060e-01 0 0 0
144 1 2 5.9999999999999998e-02 -6.9845467934447845e+00 -2.2590869999575363e+00 5.9876403553559090e+00 1 0 -1
2 1 2 5.9999999999999998e-02 -1.4982966053634612e+00 -7.7826572688609215e+00 -5.5527335039851717e+00 0 0 0
107 1 2 5.9999999999999998e-02 -4.8418156499861809e+00 -7.4399551658347962e-01 -3.4656996975648870e+00 0 -1 0
53 1 2 5.9999999999999998e-02 -2.1843996795059604e+00 -3.0301135297724047e+00 6.9722792604401134e+00 0 0 -1
207 1 2 5.9999999999999998e-02 -5.1621589250565130e+00 -6.2207296783909847e+00 -8.0413753398780996e-01 1 0 0
208 1 2 5.9999999999999998e-02 -3.4647702698959169e+00 -6.6278981768693166e+00 -4.1986124082339354e-01 1 0 0
3 1 2 5.9999999999999998e-02 -5.7696206045848811e-02 -7.3918717509545493e+00 -6.6104818726631667e+00 0 0 0
48 1 2 5.9999999999999998e-02 -6.3840505730454851e+00 -2.8737298553953852e+00 -4.1239237053021771e-01 0 0 0
1 1 1 -2.3999999999999999e-01 -1.1479821150611993e+00 -7.4509728948740097e+00 -6.5632019946026947e+00 0 0 0
5 1 2 5.9999999999999998e-02 -1.5786679255757561e+00 -6.5086554641612242e+00 -6.8444311628242636e+00 0 0 0
30 1 2 5.9999999999999998e-02 -2.0237173567905993e+00 -6.6141801320546656e-01 6.4706952647499731e+00 0 0 0
18 1 2 5.9999999999999998e-02 -7.6236224154246441e+00 -5.8157997185746790e+00 -2.8029825306542620e+00 0 0 1
285 1 2 5.9999999999999998e-02 -6.6232800749663778e-01 -6.5401356757122109e+00 -2.0608567010516903e+00 1 0 -1
9 1 2 5.9999999999999998e-02 3.2618783663308841e+00 -5.4347816634836121e+00 -5.5457176628764806e+00 0 0 0
254 1 2 5.9999999999999998e-02 9.2051328758550943e-01 -3.5946254674207707e+00 -4.9546887990620707e+00 1 -1 1
148 1 2 5.9999999999999998e-02 6.0486803253615316e+00 7.6983074045348876e-01 -5.3010052319277623e+00 0 0 0
146 1 1 -2.3999999999999999e-01 7.0553130220530758e+00 7.4345310191346936e-01 -4.9667580653184435e+00 0 0 0
7 1 2 5.9999999999999998e-02 4.0855462193650292e+00 -6.9993555730973744e+00 -5.4030375550063585e+00 0 0 0
6 1 1 -2.3999999999999999e-01 3.2606865543626653e+00 -6.4720392972735059e+00 -5.8562000137430035e+00 0 0 0
8 1 2 5.9999999999999998e-02 2.3209905385563800e+00 -6.9579044326040078e+00 -5.5562399095223585e+00 0 0 0
10 1 2 5.9999999999999998e-02 3.3386411960014595e+00 -6.5432952833676019e+00 -6.9317677407112663e+00 0 0 0
303 1 2 5.9999999999999998e-02 4.4136047206481539e+00 -5.0392494191105373e+00 -2.3892726508816597e+00 0 0 0
301 1 1 -2.3999999999999999e-01 3.3386179777150962e+00 -5.0882136246215905e+00 -2.1200594268882678e+00 0 0 0
302 1 2 5.9999999999999998e-02 2.9897101098326835e+00 -6.1436463069577965e+00 -2.2104437862798885e+00 0 0 0
304 1 2 5.9999999999999998e-02 2.6772719808056911e+00 -4.4422303256363014e+00 -2.6979902227990746e+00 0 0 0
105 1 2 5.9999999999999998e-02 5.9105735680669138e+00 -3.1023533793380711e+00 -3.2515368984036295e+00 0 0 0
103 1 2 5.9999999999999998e-02 6.1884552123354970e+00 -2.3326365561601206e+00 -4.7996515611229560e+00 0 0 0
101 1 1 -2.3999999999999999e-01 6.1226169342519041e+00 -3.3072515681619969e+00 -4.3090396478976665e+00 0 0 0
102 1 2 5.9999999999999998e-02 7.0918354822606746e+00 -3.8101197833202702e+00 -4.4330298334805009e+00 0 0 0
104 1 2 5.9999999999999998e-02 5.2740217538863199e+00 -3.8519258641950476e+00 -4.6874822697033469e+00 0 0 0
305 1 2 5.9999999999999998e-02 3.3312434408474672e+00 -4.8247561585129279e+00 -1.0774960404200680e+00 0 0 0
75 1 2 5.9999999999999998e-02 8.2278097246995419e-01 -3.5023631882035420e+00 4.8286783820732493e-01 0 0 0
36 1 1 -2.3999999999999999e-01 6.8864192764306820e+00 -7.3626318866316618e+00 -4.0445730678133467e+00 0 0 1
255 1 2 5.9999999999999998e-02 1.6995683193917914e+00 -2.7214552510201888e+00 -6.2212213546912656e+00 1 -1 1
251 1 1 -2.3999999999999999e-01 1.7056649715114878e+00 -2.8585349738514343e+00 -5.1510649101861254e+00 1 -1 1
252 1 2 5.9999999999999998e-02 1.3610660661863525e+00 -1.9523045724339587e+00 -4.6796546058449922e+00 1 -1 1
71 1 1 -2.3999999999999999e-01 1.4750427105786708e+00 -2.6120462216077081e+00 4.6037313962380583e-01 0 0 0
37 1 2 5.9999999999999998e-02 6.2384694227999100e+00 -8.0282198430439227e+00 -4.5774159227514559e+00 0 0 1
253 1 2 5.9999999999999998e-02 2.6689699810440928e+00 -3.1596563429105320e+00 -4.7719381177890581e+00 1 -1 1
72 1 2 5.9999999999999998e-02 1.6383354111219302e+00 -2.3910225373974514e+00 -6.0792428965888212e-01 0 0 0
38 1 2 5.9999999999999998e-02 7.7146848560212709e+00 -7.1112118676901854e+00 -4.6884494591972663e+00 0 0 1
82 1 2 5.9999999999999998e-02 3.4697504696682371e+00 -1.2461817662522978e+00 -2.6538871117186114e+00 0 -1 0
85 1 2 5.9999999999999998e-02 4.8807048354826463e+00 -2.4503609806946172e-01 -3.0514167207916869e+00 0 -1 0
273 1 2 5.9999999999999998e-02 1.2536809381942218e+00 7.7720435790348175e+00 -4.9726424986541742e-02 1 -1 0
218 1 2 5.9999999999999998e-02 6.3413433586112671e+00 -2.4443624101254309e+00 -1.0022685777639004e+00 0 0 0
310 1 2 5.9999999999999998e-02 1.1763181693363969e+00 5.1535490584092691e-01 -8.3262232583069051e-01 1 0 -1
39 1 2 5.9999999999999998e-02 6.3166666515971777e+00 -6.4674791642162619e+00 -3.8315301954424656e+00 0 0 1
84 1 2 5.9999999999999998e-02 3.2281902719649747e+00 3.5237543106311980e-01 -3.3767693525748355e+00 0 -1 0
81 1 1 -2.3999999999999999e-01 3.8925997191268111e+00 -5.2110261127723712e-01 -3.3641340951509053e+00 0 -1 0
170 1 2 5.9999999999999998e-02 7.2989513506551500e+00 -7.8025938885201516e+00 -1.8112823140238399e-01 0 0 0
233 1 2 5.9999999999999998e-02 -4.7275291005005027e-01 7.0986572381972319e+00 -3.5983188913623896e+00 1 0 0
116 1 1 -2.3999999999999999e-01 -6.8321986123089120e+00 6.6960929146314490e+00 -5.3039522638051277e+00 1 -1 1
312 1 2 5.9999999999999998e-02 -2.1348558780479561e+00 6.0043672746556851e+00 -4.4786143990408620e+00 1 0 0
314 1 2 5.9999999999999998e-02 -3.1655151968417972e+00 4.9194910843419111e+00 -5.3456982006673917e+00 1 0 0
313 1 2 5.9999999999999998e-02 -2.1164170578203132e+00 6.0558311843894304e+00 -6.1880752917537905e+00 1 0 0
311 1 1 -2.3999999999999999e-01 -2.7535177178575236e+00 5.9098376439065623e+00 -5.3316482491304411e+00 1 0 0
315 1 2 5.9999999999999998e-02 -3.5464871090920309e+00 6.6597674601676209e+00 -5.3299932303056279e+00 1 0 0
117 1 2 5.9999999999999998e-02 -6.6813195174160160e+00 7.4464039319228501e+00 -6.1011152381105012e+00 1 -1 1
118 1 2 5.9999999999999998e-02 -6.4408387621441507e+00 7.1596363183288885e+00 -4.3714941537658856e+00 1 -1 1
119 1 2 5.9999999999999998e-02 -7.8909368738286121e+00 6.3221865940303781e+00 -5.2194517389855530e+00 1 -1 1
161 1 1 -2.3999999999999999e-01 -6.9515272438496822e+00 2.9891606747751776e+00 -3.5444550894137463e+00 1 -1 0
120 1 2 5.9999999999999998e-02 -6.2107932827252510e+00 5.8131195849297344e+00 -5.4484445493271627e+00 1 -1 1
162 1 2 5.9999999999999998e-02 -6.6779521838253624e+00 1.9941678507690177e+00 -3.9455511872929985e+00 1 -1 0
183 1 2 5.9999999999999998e-02 -7.9918348351734885e+00 6.6148751623752018e+00 -1.7630123001750608e+00 1 -1 1
184 1 2 5.9999999999999998e-02 -7.9941931822118724e+00 4.8997722377853545e+00 -1.5172579380232354e+00 1 -1 1
181 1 1 -2.3999999999999999e-01 8.0357294043731002e+00 5.7757571100269143e+00 -1.4598706589368842e+00 0 -1 1
157 1 2 5.9999999999999998e-02 -1.2468152877151395e-01 4.4876319525155646e+00 4.8642617455415244e-01 0 0 0
164 1 2 5.9999999999999998e-02 -6.9317773030025105e+00 3.7530176662770023e+00 -4.3289984740530079e+00 1 -1 0
165 1 2 5.9999999999999998e-02 -7.9621177896189845e+00 3.0582505865956491e+00 -3.0978899106724511e+00 1 -1 0
227 1 2 5.9999999999999998e-02 -4.1266897746587823e+00 6.9065489117273415e+00 -2.1298451129564180e+00 1 0 0
226 1 1 -2.3999999999999999e-01 -4.5369315590137855e+00 6.6417478559167948e+00 -1.1557910251919126e+00 1 0 0
228 1 2 5.9999999999999998e-02 -4.5424816735475266e+00 7.4720611070090230e+00 -4.6854340557118407e-01 1 0 0
163 1 2 5.9999999999999998e-02 -6.2698167221446166e+00 3.3154422847293370e+00 -2.7591323848491194e+00 1 -1 0
229 1 2 5.9999999999999998e-02 -5.5798656766817114e+00 6.2973578853086014e+00 -1.2409545166527873e+00 1 0 0
230 1 2 5.9999999999999998e-02 -3.9254852681084871e+00 5.8336066972583902e+00 -7.2364338877260836e-01 1 0 0
222 1 2 5.9999999999999998e-02 -7.7147431107004953e+00 1.8061681470710977e+00 -9.5032422665443894e-01 1 0 -1
156 1 1 -2.3999999999999999e-01 -1.1271611628150544e+00 4.3705825551680322e+00 1.1855353030297321e-01 0 0 0
160 1 2 5.9999999999999998e-02 -1.8584882792823940e+00 4.6420473275280756e+00 9.0400048199951721e-01 0 0 0
185 1 2 5.9999999999999998e-02 7.2156475323042475e+00 5.7104369863177435e+00 -2.1445083656362498e+00 0 -1 1
158 1 2 5.9999999999999998e-02 -1.3221724794141470e+00 5.0167817190537711e+00 -7.2741703262921376e-01 0 0 0
149 1 2 5.9999999999999998e-02 7.6232448224628104e+00 2.1465308829614310e-01 -5.7469285144837459e+00 0 0 0
64 1 2 5.9999999999999998e-02 -4.6160681745401906e+00 2.2201242539830357e+00 -6.1236650749929771e+00 1 0 0
61 1 1 -2.3999999999999999e-01 -5.0812569955115858e+00 1.8118758110291640e+00 -7.0144896320875727e+00 1 0 0
27 1 2 5.9999999999999998e-02 -1.1794419418731945e+00 3.0715601576446622e-01 -6.7239562931144921e+00 0 0 1
188 1 2 5.9999999999999998e-02 -6.8531424942301333e+00 4.7257446063538087e+00 6.8856458895223573e+00 1 -1 0
309 1 2 5.9999999999999998e-02 -3.7210143566712511e-01 8.5822586619560737e-01 -1.5043813413290748e+00 1 0 -1
307 1 2 5.9999999999999998e-02 8.4578908791266960e-01 -7.8680932734334047e-02 -2.4202430807558621e+00 1 0 -1
147 1 2 5.9999999999999998e-02 7.4134157243850884e+00 1.7697236952694086e+00 -4.8332722202382410e+00 0 0 0
150 1 2 5.9999999999999998e-02 7.1614401779176378e+00 2.0193047444775189e-01 -4.0215381781775426e+00 0 0 0
231 1 1 -2.3999999999999999e-01 5.0557349268558294e-01 6.8455431743538488e+00 -3.1354470668196122e+00 1 0 0
235 1 2 5.9999999999999998e-02 1.1155486987958028e+00 6.3137449297824677e+00 -3.8309449385637202e+00 1 0 0
232 1 2 5.9999999999999998e-02 3.2895566126831322e-01 6.2406898943969180e+00 -2.2435601949097408e+00 1 0 0
182 1 2 5.9999999999999998e-02 7.5700561853500741e+00 5.8335847314461082e+00 -4.4808017506350972e-01 0 -1 1
40 1 2 5.9999999999999998e-02 7.2752699743630185e+00 -7.7806580843677988e+00 -3.1265934071692070e+00 0 0 1
234 1 2 5.9999999999999998e-02 1.0490265522845001e+00 7.7891137116596871e+00 -2.9342709394897772e+00 1 0 0
83 1 2 5.9999999999999998e-02 3.8599830221857996e+00 -9.8082390445887857e-01 -4.3449756569230953e+00 0 -1 0
172 1 2 5.9999999999999998e-02 5.0121350694360638e+00 6.6327576981737524e+00 -2.6766176801777064e+00 0 -1 0
175 1 2 5.9999999999999998e-02 3.2745834266594307e+00 6.2051630662062358e+00 -2.7419193498186925e+00 0 -1 0
174 1 2 5.9999999999999998e-02 3.9045769631606193e+00 7.5224121539707287e+00 -3.8153445488687114e+00 0 -1 0
171 1 1 -2.3999999999999999e-01 4.0127303348090626e+00 7.0477146279162337e+00 -2.8213405402613074e+00 0 -1 0
173 1 2 5.9999999999999998e-02 3.7941395268933671e+00 7.8283442564855816e+00 -2.0933016688342350e+00 0 -1 0
113 1 2 5.9999999999999998e-02 4.8509283097914846e+00 2.8094822057578872e+00 -3.1695987942191559e+00 0 -1 1
111 1 1 -2.3999999999999999e-01 5.4847924787739286e+00 2.7144066751355846e+00 -2.2949842615887985e+00 0 -1 1
115 1 2 5.9999999999999998e-02 4.7899167922538002e+00 2.4925355801233184e+00 -1.5116704058794728e+00 0 -1 1
114 1 2 5.9999999999999998e-02 6.1451489987455572e+00 1.8701658522264333e+00 -2.3522075364236286e+00 0 -1 1
112 1 2 5.9999999999999998e-02 5.9936399653517958e+00 3.6111295326643913e+00 -2.1133920351088276e+00 0 -1 1
33 1 2 5.9999999999999998e-02 6.1908567196710376e+00 4.7714855909933442e+00 -6.6652737649795410e+00 0 -1 1
35 1 2 5.9999999999999998e-02 7.2435564437144055e+00 3.9408181537417715e+00 -5.4362889006050095e+00 0 -1 1
31 1 1 -2.3999999999999999e-01 6.1907602477059571e+00 4.1882470780504004e+00 -5.7227489528895106e+00 0 -1 1
198 1 2 5.9999999999999998e-02 2.0181024027069761e+00 3.7900759897126846e+00 -5.4899912424522750e+00 0 -1 1
200 1 2 5.9999999999999998e-02 1.2999029987009432e+00 4.8099305299856052e+00 -6.7909275330804419e+00 0 -1 1
199 1 2 5.9999999999999998e-02 1.5443352468679703e+00 3.0879525473905169e+00 -7.0029128827749325e+00 0 -1 1
196 1 1 -2.3999999999999999e-01 1.2868048966978625e+00 3.8255040213116684e+00 -6.2862611137418485e+00 0 -1 1
308 1 2 5.9999999999999998e-02 1.0858748519127250e+00 1.6633330910239437e+00 -2.1548711776560237e+00 1 0 -1
197 1 2 5.9999999999999998e-02 2.8534270219865843e-01 3.6532499384404624e+00 -5.8566792486288426e+00 0 -1 1
34 1 2 5.9999999999999998e-02 5.7048406007909396e+00 4.7466190948000362e+00 -4.9364197346471625e+00 0 -1 1
306 1 1 -2.3999999999999999e-01 6.8099163895048587e-01 7.5242906074584670e-01 -1.7265734855527899e+00 1 0 -1
93 1 2 5.9999999999999998e-02 3.6994606829981840e+00 7.1948384726524683e-01 -6.7817532743338260e+00 0 -1 0
32 1 2 5.9999999999999998e-02 5.6161992231926368e+00 3.2767585223756881e+00 -5.8772983025897476e+00 0 -1 1
44 1 2 5.9999999999999998e-02 3.8536719845862812e+00 8.2537138696518786e-01 -4.2606797113793027e-01 0 0 0
194 1 2 5.9999999999999998e-02 2.2913346062603628e+00 5.0979254097266278e+00 -1.9767847682459599e-01 0 -1 0
25 1 2 5.9999999999999998e-02 2.7471320416146416e+00 7.1790204304460898e+00 -7.1867084423553127e+00 0 -1 0
49 1 2 5.9999999999999998e-02 -5.2148088506381418e+00 -2.7868632266425486e+00 9.4576266044965451e-01 0 0 0
210 1 2 5.9999999999999998e-02 -4.4281862877832294e+00 -5.9544178578227491e+00 8.3863145747582024e-01 1 0 0
47 1 2 5.9999999999999998e-02 -4.7834087265783625e+00 -2.1846789320399633e+00 -6.4835549860264097e-01 0 0 0
209 1 2 5.9999999999999998e-02 -4.0079694748915093e+00 -4.9397536254688967e+00 -4.9889949711788206e-01 1 0 0
206 1 1 -2.3999999999999999e-01 -4.2850408759702274e+00 -5.9436951795859043e+00 -2.1655731202539333e-01 1 0 0
78 1 2 5.9999999999999998e-02 -3.8344084773542622e+00 -5.5814814277913651e+00 3.0240925603207676e+00 0 0 0
77 1 2 5.9999999999999998e-02 -3.2233755172066418e+00 -4.4286057423895944e+00 4.2526553099407938e+00 0 0 0
59 1 2 5.9999999999999998e-02 -1.4903835493818647e+00 -5.0484290697372263e+00 1.8684637068009819e+00 0 0 0
80 1 2 5.9999999999999998e-02 -4.9333996527693103e+00 -4.6994372179411759e+00 4.1292477077309018e+00 0 0 0
76 1 1 -2.3999999999999999e-01 -3.9945556984399131e+00 -5.1621220487920141e+00 4.0211819710968184e+00 0 0 0
79 1 2 5.9999999999999998e-02 -4.0040068140348737e+00 -5.9993712698843211e+00 4.6975509805399662e+00 0 0 0
294 1 2 5.9999999999999998e-02 -8.4797362796516659e-02 -4.4939807920638728e+00 5.5236426818411157e+00 1 0 -1
56 1 1 -2.3999999999999999e-01 -7.7028325379442986e-01 -5.4894638674022032e+00 2.5507659107220455e+00 0 0 0
57 1 2 5.9999999999999998e-02 -1.1756201394423382e+00 -5.5130063996612142e+00 3.5737270403367787e+00 0 0 0
250 1 2 5.9999999999999998e-02 -1.5015678187593688e+00 -1.2629892591776728e+00 9.7902023652011927e-01 1 -1 0
246 1 1 -2.3999999999999999e-01 -2.1894976592033100e+00 -1.7569557156329962e+00 1.6765533363048535e+00 1 -1 0
248 1 2 5.9999999999999998e-02 -1.5609916078057617e+00 -2.3208617349052845e+00 2.3851371185237249e+00 1 -1 0
317 1 2 5.9999999999999998e-02 -7.5947551358500043e+00 -5.6173914412088868e+00 1.1363269559011060e+00 1 0 0
249 1 2 5.9999999999999998e-02 -2.8872762839400741e+00 -2.3349627067776431e+00 1.1170997647850827e+00 1 -1 0
247 1 2 5.9999999999999998e-02 -2.7650761103326138e+00 -9.8359590623026294e-01 2.2050981423880915e+00 1 -1 0
265 1 2 5.9999999999999998e-02 -7.3938307179018592e+00 -6.9590969595808412e+00 5.3745085223114737e+00 1 0 -1
319 1 2 5.9999999999999998e-02 -6.2235709779982358e+00 -6.1825515061050265e+00 2.1800367681363122e+00 1 0 0
58 1 2 5.9999999999999998e-02 -5.6774680927668142e-01 -6.5329831939996206e+00 2.2408976574710775e+00 0 0 0
178 1 2 5.9999999999999998e-02 -4.2467194254561473e+00 -1.8297402983110045e+00 5.4974105765096510e+00 1 -1 0
123 1 2 5.9999999999999998e-02 -6.9688485840944479e+00 -2.2762710339165784e+00 2.7778363421459455e+00 1 0 -1
176 1 1 -2.3999999999999999e-01 -4.4622144356398250e+00 -1.2733412100894836e+00 4.5819434858281651e+00 1 -1 0
180 1 2 5.9999999999999998e-02 -4.5188276818422564e+00 -1.9862696436514511e+00 3.7691881371792966e+00 1 -1 0
122 1 2 5.9999999999999998e-02 7.9110414629512196e+00 -2.3209607072467269e+00 3.3499224182819276e+00 0 0 -1
121 1 1 -2.3999999999999999e-01 -7.9231991334540961e+00 -1.7476037577937502e+00 2.8772700570536838e+00 1 0 -1
125 1 2 5.9999999999999998e-02 -7.8312034439215035e+00 -8.6548729477672859e-01 3.5169042741700407e+00 1 0 -1
179 1 2 5.9999999999999998e-02 -5.4752542960063808e+00 -8.9114345391485339e-01 4.7559106486906861e+00 1 -1 0
316 1 1 -2.3999999999999999e-01 -7.2876680803899800e+00 -6.2328216461034893e+00 1.9736695241178273e+00 1 0 0
124 1 2 5.9999999999999998e-02 -8.2774371887287455e+00 -1.4365542248716447e+00 1.9105041420549618e+00 1 0 -1
69 1 2 5.9999999999999998e-02 1.7256252686089215e+00 -2.1324410107670451e+00 3.5239418685838064e+00 0 0 0
134 1 2 5.9999999999999998e-02 -3.3039922221183389e+00 7.9845028393481270e+00 2.7862999059705582e+00 1 -1 0
29 1 2 5.9999999999999998e-02 -7.4002648951710936e-01 4.5961076836828718e-01 5.9263824717138469e+00 0 0 0
73 1 2 5.9999999999999998e-02 2.3887045530778943e+00 -2.8304780628734738e+00 1.0606697753717760e+00 0 0 0
217 1 2 5.9999999999999998e-02 6.3516241602824808e+00 -2.6954242131337240e+00 7.1532991066170248e-01 0 0 0
74 1 2 5.9999999999999998e-02 1.0016935973984997e+00 -1.7863564505744172e+00 1.0126912507212598e+00 0 0 0
168 1 2 5.9999999999999998e-02 6.3402292059184742e+00 -6.8750002001826136e+00 1.0174887860702990e+00 0 0 0
67 1 2 5.9999999999999998e-02 5.7358306943817439e-01 -8.0177856600640363e-01 3.9135706892201396e+00 0 0 0
274 1 2 5.9999999999999998e-02 8.1035355951810328e-01 -6.8555488682487731e+00 6.9300273971874007e-02 1 0 0
216 1 1 -2.3999999999999999e-01 6.1246385273536275e+00 -3.1839448095221607e+00 -2.2970951888229665e-01 0 0 0
213 1 2 5.9999999999999998e-02 4.2208337900059618e+00 -2.9360411929590633e+00 6.2368462813095329e+00 1 0 0
219 1 2 5.9999999999999998e-02 6.8085480437756551e+00 -4.0414522840416174e+00 -2.7344479445230480e-01 0 0 0
271 1 1 -2.3999999999999999e-01 1.5656966549889835e+00 -7.5997155991538703e+00 3.0926077886737319e-01 1 0 0
318 1 2 5.9999999999999998e-02 -7.4897187544965824e+00 -7.2594025159495974e+00 1.6992916148917774e+00 1 0 0
68 1 2 5.9999999999999998e-02 2.1675937243484825e-01 -2.4847291399889193e+00 4.4048112149324483e+00 0 0 0
220 1 2 5.9999999999999998e-02 5.1206438332032249e+00 -3.5156679657525003e+00 -2.2618976744367139e-01 0 0 0
292 1 2 5.9999999999999998e-02 4.3234519282657985e-01 -4.9488742385074502e+00 -7.1753409803101516e+00 1 0 0
60 1 2 5.9999999999999998e-02 1.4835052803280793e-01 -4.8523131881645067e+00 2.4828745638366052e+00 0 0 0
212 1 2 5.9999999999999998e-02 4.6317639018494212e+00 -4.4144373218973190e+00 7.0516324578980010e+00 1 0 0
291 1 1 -2.3999999999999999e-01 6.6180297882854511e-01 -4.9999151099801873e+00 6.1199137177832457e+00 1 0 -1
293 1 2 5.9999999999999998e-02 6.7937991670516906e-01 -6.0121783844501158e+00 5.7005253880935527e+00 1 0 -1
320 1 2 5.9999999999999998e-02 -7.8080146414715577e+00 -6.0001938669648061e+00 2.8836718758982003e+00 1 0 0
295 1 2 5.9999999999999998e-02 1.6279870716696123e+00 -4.5540047890176263e+00 5.9478237423513374e+00 1 0 -1
66 1 1 -2.3999999999999999e-01 1.0176681129701548e+00 -1.7347344861932068e+00 4.2533299065222741e+00 0 0 0
215 1 2 5.9999999999999998e-02 5.5864497670092090e+00 -3.7685540805877653e+00 5.6558594660094901e+00 1 0 0
214 1 2 5.9999999999999998e-02 5.6901691644096442e+00 -3.0329442276542298e+00 -7.0762072059852654e+00 1 0 1
211 1 1 -2.3999999999999999e-01 5.0525014808439517e+00 -3.5494068789672357e+00 6.5978467426553040e+00 1 0 0
242 1 2 5.9999999999999998e-02 2.3242737861273715e+00 -4.9141582324853701e+00 2.6465291566909817e+00 1 -1 -1
241 1 1 -2.3999999999999999e-01 3.2651363083918943e+00 -5.1785554695004326e+00 3.1634193285873842e+00 1 -1 -1
245 1 2 5.9999999999999998e-02 3.1597434898332373e+00 -4.9103286219356379e+00 4.2148975862206628e+00 1 -1 -1
243 1 2 5.9999999999999998e-02 3.4007449621056676e+00 -6.2705934411222275e+00 3.1549714505941648e+00 1 -1 -1
244 1 2 5.9999999999999998e-02 4.0587970501435668e+00 -4.6868915716003512e+00 2.5865800065390010e+00 1 -1 -1
296 1 1 -2.3999999999999999e-01 6.3781579279315714e+00 -7.8005135431716406e+00 4.3356577265032632e+00 0 0 0
97 1 2 5.9999999999999998e-02 6.0361721758157438e+00 -6.4045081686342398e-01 3.2911592560879672e+00 0 -1 0
297 1 2 5.9999999999999998e-02 6.7303850656684965e+00 -7.7756093915325568e+00 3.3006769852885247e+00 0 0 0
99 1 2 5.9999999999999998e-02 5.4447949485933727e+00 -1.7208022333457471e+00 4.5527345643515629e+00 0 -1 0
96 1 1 -2.3999999999999999e-01 5.2356266887951470e+00 -1.3088876124126969e+00 3.5752241373289992e+00 0 -1 0
100 1 2 5.9999999999999998e-02 4.3592224886707198e+00 -7.0296147839406042e-01 3.6507048816494510e+00 0 -1 0
300 1 2 5.9999999999999998e-02 6.4397306444886260e+00 -6.7772592139810479e+00 4.7485363625946793e+00 0 0 0
298 1 2 5.9999999999999998e-02 5.3089049753956719e+00 -8.1165857710280314e+00 4.3920940183745643e+00 0 0 0
98 1 2 5.9999999999999998e-02 4.9921586356581509e+00 -2.0325784271864613e+00 2.7568348673234349e+00 0 -1 0
166 1 1 -2.3999999999999999e-01 6.2871788872135985e+00 -7.6258004980860203e+00 1.9985141712478699e-01 0 0 0
169 1 2 5.9999999999999998e-02 5.7999155292789633e+00 7.8155697652959457e+00 6.2894134592462902e-01 0 -1 0
70 1 2 5.9999999999999998e-02 1.5283001090657959e+00 -1.6110951127234161e+00 5.2096861368351126e+00 0 0 0
95 1 2 5.9999999999999998e-02 2.0348740604025779e+00 2.9196791417150125e-01 -6.9548363312855077e+00 0 -1 0
90 1 2 5.9999999999999998e-02 -2.4703737400179273e+00 1.2344824098502005e+00 8.7297178239700679e-01 1 -1 0
63 1 2 5.9999999999999998e-02 -5.0419600409616310e+00 6.9146897447129874e-01 -6.9845216418228731e+00 1 0 0
28 1 2 5.9999999999999998e-02 -2.2801420649971162e+00 1.1229217189762724e+00 6.5582174339466990e+00 0 0 0
159 1 2 5.9999999999999998e-02 -1.2369809538871537e+00 3.3331039759124628e+00 -1.1891573069432738e-01 0 0 0
132 1 2 5.9999999999999998e-02 -2.2016175214332918e+00 6.6117578189777584e+00 2.9323272532467959e+00 1 -1 0
261 1 1 -2.3999999999999999e-01 -6.7669200991055591e+00 -7.8276612441625444e+00 5.0825196174453255e+00 1 0 -1
262 1 2 5.9999999999999998e-02 -7.3496830261119328e+00 7.8944739709974749e+00 4.4155159254527545e+00 1 -1 -1
4 1 2 5.9999999999999998e-02 -1.4687128227501844e+00 8.0987254825652535e+00 7.1109728649137534e+00 0 -1 -1
135 1 2 5.9999999999999998e-02 -1.8843652786684413e+00 7.9103811082874103e+00 1.7030150292081565e+00 1 -1 0
264 1 2 5.9999999999999998e-02 -5.8698444267531773e+00 -7.5412600549047220e+00 4.5422330323071938e+00 1 0 -1
89 1 2 5.9999999999999998e-02 -3.7057176295262986e+00 2.5746487953730153e+00 1.1309328521257107e+00 1 -1 0
86 1 1 -2.3999999999999999e-01 -3.5519917013357478e+00 1.5138816701926590e+00 1.0081234560665997e+00 1 -1 0
87 1 2 5.9999999999999998e-02 -3.9559941306736657e+00 1.0156723833773156e+00 1.8552152661048738e+00 1 -1 0
263 1 2 5.9999999999999998e-02 -6.4467185461595351e+00 7.9745128615064322e+00 5.9644267563672386e+00 1 -1 -1
202 1 2 5.9999999999999998e-02 -6.9213224014073811e+00 1.3065328923955362e+00 2.7676281916461516e+00 1 0 0
155 1 2 5.9999999999999998e-02 -7.1386675667752142e+00 5.9117140845716349e+00 2.4032399001667670e+00 1 -1 0
62 1 2 5.9999999999999998e-02 -4.5558595138297706e+00 2.2076169539111006e+00 6.4891318332362991e+00 1 0 -1
153 1 2 5.9999999999999998e-02 -6.0450118223537190e+00 7.0652377804834021e+00 1.7383796901452457e+00 1 -1 0
65 1 2 5.9999999999999998e-02 -6.1184383451792836e+00 2.0878942432800662e+00 -7.0199306892287003e+00 1 0 0
131 1 1 -2.3999999999999999e-01 -2.6616069773227355e+00 7.3079187932243048e+00 2.2259941636260310e+00 1 -1 0
133 1 2 5.9999999999999998e-02 -3.2524403610142003e+00 6.7386259990577173e+00 1.5166627695541453e+00 1 -1 0
205 1 2 5.9999999999999998e-02 -7.1105849355869628e+00 2.3095489040681612e+00 4.2549568218183191e+00 1 0 0
151 1 1 -2.3999999999999999e-01 -6.2268653913334342e+00 5.9743561553974915e+00 1.8236719843851343e+00 1 -1 0
204 1 2 5.9999999999999998e-02 -6.3388325202343587e+00 3.0004538494583288e+00 2.7730752917844508e+00 1 0 0
88 1 2 5.9999999999999998e-02 -4.0859091552065383e+00 1.2448654863076518e+00 9.0295813894588461e-02 1 -1 0
177 1 2 5.9999999999999998e-02 -3.6892016217911472e+00 -5.5694091642613430e-01 4.4107085509159027e+00 1 -1 0
152 1 2 5.9999999999999998e-02 -5.3952529337616753e+00 5.4905557441147712e+00 2.3539539541983321e+00 1 -1 0
287 1 2 5.9999999999999998e-02 -4.7072878447340927e-01 3.1291113806183821e+00 4.3276972716356950e+00 1 0 -1
288 1 2 5.9999999999999998e-02 -6.0925302092527633e-01 1.8308532398271007e+00 3.0604820778376696e+00 1 0 -1
286 1 1 -2.3999999999999999e-01 -1.1592501013967718e+00 2.5386293332934922e+00 3.7021629826735944e+00 1 0 -1
127 1 2 5.9999999999999998e-02 -4.1091732305691151e+00 4.0920486237237856e+00 5.1526948102437089e+00 1 -1 0
130 1 2 5.9999999999999998e-02 -4.3027464354415459e+00 5.8500689331531674e+00 5.1293968913491836e+00 1 -1 0
126 1 1 -2.3999999999999999e-01 -3.5832876159332043e+00 5.0491569583901299e+00 5.1768709116647447e+00 1 -1 0
128 1 2 5.9999999999999998e-02 -2.9557059844823850e+00 5.2514575207872438e+00 6.0458339952532434e+00 1 -1 0
129 1 2 5.9999999999999998e-02 -2.9174318256644951e+00 5.1237922278509567e+00 4.2957858740650776e+00 1 -1 0
201 1 1 -2.3999999999999999e-01 -6.4808843710854225e+00 2.0899550240215694e+00 3.3907953606547365e+00 1 0 0
203 1 2 5.9999999999999998e-02 -5.5607516768925889e+00 1.6516254578707510e+00 3.8002138140443891e+00 1 0 0
289 1 2 5.9999999999999998e-02 -1.7864094943976061e+00 2.0096399662942623e+00 4.4122233389904499e+00 1 0 -1
26 1 1 -2.3999999999999999e-01 -1.5482887112247903e+00 3.0482735455915777e-01 6.6325014573605374e+00 0 0 0
154 1 2 5.9999999999999998e-02 -6.4110756352005849e+00 5.5546364837031099e+00 8.1153037114382343e-01 1 -1 0
187 1 2 5.9999999999999998e-02 8.2983271431298586e+00 5.7446493519362267e+00 6.5317342440152091e+00 0 -1 0