********************************************************************************
*                       GENERAL UTILITY LATTICE PROGRAM                        *
*                                 Julian Gale                                  *
*                      Nanochemistry Research Institute                        *
*                           Department of Chemistry                            *
*                    Curtin University, Western Australia                      *
********************************************************************************
* Version = 4.1.3 * Last modified =   8th October 2013                         *
********************************************************************************
*  single       - perform a single point run                                   *
*  md           - perform molecular dynamics run                               *
*  conv         - constant volume calculation                                  *
********************************************************************************

  Job Started  at 10:52.51  8th October    2013                               

  Number of CPUs =     1

  Host name      = M-A0002884.local                        


  Total number of configurations input =   1

********************************************************************************
*  Input for Configuration =   1                                               *
********************************************************************************

  Formula = Mg32O32                                                     

  Number of irreducible atoms/shells =      96


  Total number atoms/shells =      96

  Dimensionality = 3               :  Bulk   



  Supercell dimensions :  x =   2  y =   2  z =   2

  Cartesian lattice vectors (Angstroms) :

        8.423972    0.000000    0.000000
        0.000000    8.423972    0.000000
        0.000000    0.000000    8.423972

  Cell parameters (Angstroms/Degrees):

  a =       8.4240    alpha =  90.0000
  b =       8.4240    beta  =  90.0000
  c =       8.4240    gamma =  90.0000

  Initial cell volume =         597.792888 Angs**3

  Temperature of configuration =  300.0     K 

  Pressure of configuration =         0.000 GPa 

  Fractional coordinates of asymmetric unit :

--------------------------------------------------------------------------------
   No.  Atomic       x           y          z         Charge      Occupancy
        Label      (Frac)      (Frac)     (Frac)        (e)         (Frac)  
--------------------------------------------------------------------------------
      1 Mg    c    0.000000 *  0.000000 *  0.000000 *   2.00000    1.000000    
      2 Mg    c    0.000000 *  0.000000 *  0.500000 *   2.00000    1.000000    
      3 Mg    c    0.000000 *  0.500000 *  0.000000 *   2.00000    1.000000    
      4 Mg    c    0.000000 *  0.500000 *  0.500000 *   2.00000    1.000000    
      5 Mg    c    0.500000 *  0.000000 *  0.000000 *   2.00000    1.000000    
      6 Mg    c    0.500000 *  0.000000 *  0.500000 *   2.00000    1.000000    
      7 Mg    c    0.500000 *  0.500000 *  0.000000 *   2.00000    1.000000    
      8 Mg    c    0.500000 *  0.500000 *  0.500000 *   2.00000    1.000000    
      9 Mg    c    0.000000 *  0.250000 *  0.250000 *   2.00000    1.000000    
     10 Mg    c    0.000000 *  0.250000 *  0.750000 *   2.00000    1.000000    
     11 Mg    c    0.000000 *  0.750000 *  0.250000 *   2.00000    1.000000    
     12 Mg    c    0.000000 *  0.750000 *  0.750000 *   2.00000    1.000000    
     13 Mg    c    0.500000 *  0.250000 *  0.250000 *   2.00000    1.000000    
     14 Mg    c    0.500000 *  0.250000 *  0.750000 *   2.00000    1.000000    
     15 Mg    c    0.500000 *  0.750000 *  0.250000 *   2.00000    1.000000    
     16 Mg    c    0.500000 *  0.750000 *  0.750000 *   2.00000    1.000000    
     17 Mg    c    0.250000 *  0.000000 *  0.250000 *   2.00000    1.000000    
     18 Mg    c    0.250000 *  0.000000 *  0.750000 *   2.00000    1.000000    
     19 Mg    c    0.250000 *  0.500000 *  0.250000 *   2.00000    1.000000    
     20 Mg    c    0.250000 *  0.500000 *  0.750000 *   2.00000    1.000000    
     21 Mg    c    0.750000 *  0.000000 *  0.250000 *   2.00000    1.000000    
     22 Mg    c    0.750000 *  0.000000 *  0.750000 *   2.00000    1.000000    
     23 Mg    c    0.750000 *  0.500000 *  0.250000 *   2.00000    1.000000    
     24 Mg    c    0.750000 *  0.500000 *  0.750000 *   2.00000    1.000000    
     25 Mg    c    0.250000 *  0.250000 *  0.000000 *   2.00000    1.000000    
     26 Mg    c    0.250000 *  0.250000 *  0.500000 *   2.00000    1.000000    
     27 Mg    c    0.250000 *  0.750000 *  0.000000 *   2.00000    1.000000    
     28 Mg    c    0.250000 *  0.750000 *  0.500000 *   2.00000    1.000000    
     29 Mg    c    0.750000 *  0.250000 *  0.000000 *   2.00000    1.000000    
     30 Mg    c    0.750000 *  0.250000 *  0.500000 *   2.00000    1.000000    
     31 Mg    c    0.750000 *  0.750000 *  0.000000 *   2.00000    1.000000    
     32 Mg    c    0.750000 *  0.750000 *  0.500000 *   2.00000    1.000000    
     33 O     c    0.250000 *  0.250000 *  0.250000 *   0.86900    1.000000    
     34 O     c    0.250000 *  0.250000 *  0.750000 *   0.86900    1.000000    
     35 O     c    0.250000 *  0.750000 *  0.250000 *   0.86900    1.000000    
     36 O     c    0.250000 *  0.750000 *  0.750000 *   0.86900    1.000000    
     37 O     c    0.750000 *  0.250000 *  0.250000 *   0.86900    1.000000    
     38 O     c    0.750000 *  0.250000 *  0.750000 *   0.86900    1.000000    
     39 O     c    0.750000 *  0.750000 *  0.250000 *   0.86900    1.000000    
     40 O     c    0.750000 *  0.750000 *  0.750000 *   0.86900    1.000000    
     41 O     c    0.250000 *  0.000000 *  0.000000 *   0.86900    1.000000    
     42 O     c    0.250000 *  0.000000 *  0.500000 *   0.86900    1.000000    
     43 O     c    0.250000 *  0.500000 *  0.000000 *   0.86900    1.000000    
     44 O     c    0.250000 *  0.500000 *  0.500000 *   0.86900    1.000000    
     45 O     c    0.750000 *  0.000000 *  0.000000 *   0.86900    1.000000    
     46 O     c    0.750000 *  0.000000 *  0.500000 *   0.86900    1.000000    
     47 O     c    0.750000 *  0.500000 *  0.000000 *   0.86900    1.000000    
     48 O     c    0.750000 *  0.500000 *  0.500000 *   0.86900    1.000000    
     49 O     c    0.000000 *  0.250000 *  0.000000 *   0.86900    1.000000    
     50 O     c    0.000000 *  0.250000 *  0.500000 *   0.86900    1.000000    
     51 O     c    0.000000 *  0.750000 *  0.000000 *   0.86900    1.000000    
     52 O     c    0.000000 *  0.750000 *  0.500000 *   0.86900    1.000000    
     53 O     c    0.500000 *  0.250000 *  0.000000 *   0.86900    1.000000    
     54 O     c    0.500000 *  0.250000 *  0.500000 *   0.86900    1.000000    
     55 O     c    0.500000 *  0.750000 *  0.000000 *   0.86900    1.000000    
     56 O     c    0.500000 *  0.750000 *  0.500000 *   0.86900    1.000000    
     57 O     c    0.000000 *  0.000000 *  0.250000 *   0.86900    1.000000    
     58 O     c    0.000000 *  0.000000 *  0.750000 *   0.86900    1.000000    
     59 O     c    0.000000 *  0.500000 *  0.250000 *   0.86900    1.000000    
     60 O     c    0.000000 *  0.500000 *  0.750000 *   0.86900    1.000000    
     61 O     c    0.500000 *  0.000000 *  0.250000 *   0.86900    1.000000    
     62 O     c    0.500000 *  0.000000 *  0.750000 *   0.86900    1.000000    
     63 O     c    0.500000 *  0.500000 *  0.250000 *   0.86900    1.000000    
     64 O     c    0.500000 *  0.500000 *  0.750000 *   0.86900    1.000000    
     65 O     s    0.250000 *  0.250000 *  0.250000 *  -2.86900    1.000000    
     66 O     s    0.250000 *  0.250000 *  0.750000 *  -2.86900    1.000000    
     67 O     s    0.250000 *  0.750000 *  0.250000 *  -2.86900    1.000000    
     68 O     s    0.250000 *  0.750000 *  0.750000 *  -2.86900    1.000000    
     69 O     s    0.750000 *  0.250000 *  0.250000 *  -2.86900    1.000000    
     70 O     s    0.750000 *  0.250000 *  0.750000 *  -2.86900    1.000000    
     71 O     s    0.750000 *  0.750000 *  0.250000 *  -2.86900    1.000000    
     72 O     s    0.750000 *  0.750000 *  0.750000 *  -2.86900    1.000000    
     73 O     s    0.250000 *  0.000000 *  0.000000 *  -2.86900    1.000000    
     74 O     s    0.250000 *  0.000000 *  0.500000 *  -2.86900    1.000000    
     75 O     s    0.250000 *  0.500000 *  0.000000 *  -2.86900    1.000000    
     76 O     s    0.250000 *  0.500000 *  0.500000 *  -2.86900    1.000000    
     77 O     s    0.750000 *  0.000000 *  0.000000 *  -2.86900    1.000000    
     78 O     s    0.750000 *  0.000000 *  0.500000 *  -2.86900    1.000000    
     79 O     s    0.750000 *  0.500000 *  0.000000 *  -2.86900    1.000000    
     80 O     s    0.750000 *  0.500000 *  0.500000 *  -2.86900    1.000000    
     81 O     s    0.000000 *  0.250000 *  0.000000 *  -2.86900    1.000000    
     82 O     s    0.000000 *  0.250000 *  0.500000 *  -2.86900    1.000000    
     83 O     s    0.000000 *  0.750000 *  0.000000 *  -2.86900    1.000000    
     84 O     s    0.000000 *  0.750000 *  0.500000 *  -2.86900    1.000000    
     85 O     s    0.500000 *  0.250000 *  0.000000 *  -2.86900    1.000000    
     86 O     s    0.500000 *  0.250000 *  0.500000 *  -2.86900    1.000000    
     87 O     s    0.500000 *  0.750000 *  0.000000 *  -2.86900    1.000000    
     88 O     s    0.500000 *  0.750000 *  0.500000 *  -2.86900    1.000000    
     89 O     s    0.000000 *  0.000000 *  0.250000 *  -2.86900    1.000000    
     90 O     s    0.000000 *  0.000000 *  0.750000 *  -2.86900    1.000000    
     91 O     s    0.000000 *  0.500000 *  0.250000 *  -2.86900    1.000000    
     92 O     s    0.000000 *  0.500000 *  0.750000 *  -2.86900    1.000000    
     93 O     s    0.500000 *  0.000000 *  0.250000 *  -2.86900    1.000000    
     94 O     s    0.500000 *  0.000000 *  0.750000 *  -2.86900    1.000000    
     95 O     s    0.500000 *  0.500000 *  0.250000 *  -2.86900    1.000000    
     96 O     s    0.500000 *  0.500000 *  0.750000 *  -2.86900    1.000000    
--------------------------------------------------------------------------------



********************************************************************************
*  General input information                                                   *
********************************************************************************

  Species output for all configurations : 

--------------------------------------------------------------------------------
  Species    Type    Atomic    Atomic    Charge       Radii (Angs)     Library
                     Number     Mass       (e)     Cova   Ionic  VDW   Symbol
--------------------------------------------------------------------------------
    Mg       Core       12      24.31   2.000000   1.100  0.000  1.640          
    O        Core        8      16.00   0.869000   0.730  0.000  1.360          
    O        Shell       8       0.00  -2.869000   0.730  0.000  1.360          
--------------------------------------------------------------------------------


  Lattice summation method               =    Ewald          (3-D)
                                         =    Parry          (2-D)
                                         =    Saunders et al (1-D)
  Accuracy factor for lattice sums       =   12.000


  Time limit = Infinity

  Maximum range for interatomic potentials =    100000.000000 Angstroms

  General interatomic potentials :

--------------------------------------------------------------------------------
Atom  Types   Potential         A         B         C         D     Cutoffs(Ang)
  1     2                                                            Min    Max 
--------------------------------------------------------------------------------
Mg   c O    s Buckingham    0.130E+04 0.300      0.00      0.00     0.000 12.000
O    s O    s Buckingham    0.228E+05 0.149      27.9      0.00     0.000 12.000
O    c O    s Spring (c-s)   74.9      0.00      0.00      0.00     0.000  0.800
--------------------------------------------------------------------------------

********************************************************************************
*  Output for configuration   1                                                *
********************************************************************************


  Components of energy : 

--------------------------------------------------------------------------------
  Interatomic potentials     =         215.06168986 eV
  Monopole - monopole (real) =        -889.34288623 eV
  Monopole - monopole (recip)=        -640.12896754 eV
  Monopole - monopole (total)=       -1529.47185377 eV
--------------------------------------------------------------------------------
  Total lattice energy       =       -1314.41016391 eV
--------------------------------------------------------------------------------
  Total lattice energy       =         -126820.4882 kJ/(mole unit cells)
--------------------------------------------------------------------------------

  Equations of motion will be integrated using the leapfrog Verlet algorithm.

  Shell masses are zero thus shell positions will be optimised each time step
  until the forces on the shells are less than .10000D-07 or for a maximum of 
    5 iterations.

  Shell positions to be extrapolated to order =    8


********************************************************************************
*  Molecular Dynamics                                                          *
********************************************************************************

  Canonical ensemble (NVT) to be used

  Friction for temperature bath =           0.100000

  No. of mobile ions        =                 64

  No. of degrees of freedom =                189

  Time step                 =           0.001000 ps
  Equilibration time        =           0.500000 ps
  Production time           =           0.500000 ps
  Scaling time              =           0.500000 ps
  Scaling frequency         =           0.001000 ps
  Sampling frequency        =           0.005000 ps
  Write frequency           =           0.020000 ps
  TD-Force start time       =           0.000000 ps
  TD-Field start time       =           0.000000 ps



  Molecular dynamics equilibration :

  ** Time :            0.00500 ps :
     Properties:                   Instantaneous       Averaged
       Kinetic energy    (eV) =       2.389270          2.389270
       Potential energy  (eV) =   -1314.048409      -1314.048409
       Total energy      (eV) =   -1311.659138      -1311.659138
       Temperature       (K)  =     293.399998        293.399998
       Pressure         (GPa) =       0.556407          0.556407
  ** Time :            0.01000 ps :
     Properties:                   Instantaneous       Averaged
       Kinetic energy    (eV) =       3.949797          3.169534
       Potential energy  (eV) =   -1200.026803      -1257.037606
       Total energy      (eV) =   -1196.077006      -1253.868072
       Temperature       (K)  =     485.031153        389.215575
       Pressure         (GPa) =      32.852013         16.704210
  ** Time :            0.01500 ps :
     Properties:                   Instantaneous       Averaged
       Kinetic energy    (eV) =       2.744886          3.027985
       Potential energy  (eV) =   -1317.406120      -1277.160444
       Total energy      (eV) =   -1314.661233      -1274.132459
       Temperature       (K)  =     337.069329        371.833493
       Pressure         (GPa) =       5.089354         12.832591
  ** Time :            0.02000 ps :
     Properties:                   Instantaneous       Averaged
       Kinetic energy    (eV) =       2.374034          2.864497
       Potential energy  (eV) =   -1310.680248      -1285.540395
       Total energy      (eV) =   -1308.306214      -1282.675898
       Temperature       (K)  =     291.528999        351.757370
       Pressure         (GPa) =       1.911910         10.102421


!!!!!!!!!!!!!!!!!!!!!!!!!!!!!!!!!!!!!!!!!!!!!!!!!!!!!!!!!!!!!!!!!!!!!!!!!!!!!!!!
!! ERROR : temperature has exceeded maximum allowed set by mdmaxtemp
!!!!!!!!!!!!!!!!!!!!!!!!!!!!!!!!!!!!!!!!!!!!!!!!!!!!!!!!!!!!!!!!!!!!!!!!!!!!!!!!


  Peak dynamic memory used =       0.74 MB 


  Timing analysis for GULP :

--------------------------------------------------------------------------------
  Task / Subroutine                                          Time (Seconds)
--------------------------------------------------------------------------------
  Calculation of reciprocal space energy and derivatives          0.1116
  Calculation of real space energy and derivatives                3.2462
  Molecular dynamics - update of geometry                         0.0011
  Molecular dynamics - corrector                                  0.0003
  Molecular dynamics - velocity correction                        0.0002
  Global summation overhead                                       0.0002
--------------------------------------------------------------------------------
  Total CPU time                                                  3.3657
--------------------------------------------------------------------------------


  Job Finished at 10:52.54  8th October    2013                               

