8
 energy: -7.336177299193 gnorm: 0.014607853035 xtb: 6.4.1 (afa7bdf)
c         0.96526929377670   -0.01259700122381    0.09128440886836
c         2.47705414064782   -0.01259700122381    0.09128470886839
h         0.58074365641972    0.74698197256990   -0.59601195790304
h         0.58074335641969    0.20282961970506    1.09274720616128
h         0.58074365641972   -0.98760269594640   -0.22288212165318
h         2.86157987800481    0.96240869349879    0.40545123938991
h         2.86158007800482   -0.22802362215268   -0.91017818842455
h         2.86157987800481   -0.77217597501752    0.77858107563978
8
 energy: -7.326191458573 gnorm: 0.056475463425 xtb: 6.4.1 (afa7bdf)
c         0.94293570202999   -0.01510756171615    0.08175037886980
c         2.50168695000779   -0.01763232053282    0.14952958143503
h         0.51416394093072    0.75647694246237   -0.56478544668516
h         0.58560975811824    0.21605585653729    1.08975740616836
h         0.55452047168440   -0.96379833800853   -0.30076243918639
h         2.91009454492021    0.99346377186707    0.23944440875266
h         2.90101240333833   -0.17544748835916   -0.85686512575826
h         2.88524201612338   -0.81380753697929    0.79465518353107
8
 energy: -7.329216251045 gnorm: 0.065839578278 xtb: 6.4.1 (afa7bdf)
c         0.91050518966274   -0.01658734438472    0.10945893747496
c         2.54030533980953   -0.00851305301075    0.09784757525911
h         0.55982231313987    0.72472760395974   -0.61488224761706
h         0.55652020078523    0.24794599836687    1.11041513259398
h         0.55304326105933   -0.97371420895136   -0.28210947440137
h         2.88825044755632    0.98815785905072    0.38555937057794
h         2.90017826004812   -0.20982986490036   -0.91564135238865
h         2.87424841211461   -0.78728313875271    0.79008724490363
8
 energy: -7.328226286556 gnorm: 0.056090979665 xtb: 6.4.1 (afa7bdf)
c         0.97597650357916   -0.00189306169996    0.09606398684814
c         2.47665142754135    0.01016905962746    0.04926681357256
h         0.58560869494639    0.71960661914046   -0.62798549675281
h         0.50498508249848    0.21411717380888    1.05975647406470
h         0.53515608356504   -0.97248466606144   -0.15056521899994
h         2.88846893814252    0.89598978947716    0.54214075042578
h         2.91531338123660   -0.25379231499759   -0.91773722627844
h         2.89707363150912   -0.71365111997413    0.75391286941177
8
 energy: -7.326421949475 gnorm: 0.057329644753 xtb: 6.4.1 (afa7bdf)
c         0.91760589785751    0.00680076967560    0.05049345226124
c         2.52421623650538    0.00058859031433    0.08999185570881
h         0.53469952073970    0.80501406170781   -0.59249544459910
h         0.50694970494007    0.14740346303969    1.05487830458934
h         0.52684740074408   -1.00143061021756   -0.11676072096339
h         2.93226732345090    0.94955960137482    0.45074814132612
h         2.91909673418528   -0.26205443564507   -0.89605317970607
h         2.93919152059935   -0.74604430533959    0.77375453375671
8
 energy: -7.329039261954 gnorm: 0.055783929525 xtb: 6.4.1 (afa7bdf)
c         0.91668335033906   -0.00935301379225    0.07137663696744
c         2.52745034102329   -0.01627639651017    0.13150412587361
h         0.51887325734936    0.78740248536725   -0.56433113679282
h         0.53776639230127    0.19571076634899    1.07714372149472
h         0.53469036486796   -0.97578280806669   -0.27110194237192
h         2.91880737799672    0.99140660490657    0.30065335437516
h         2.92498776863847   -0.22628201411010   -0.86602203822163
h         2.91698616834600   -0.78086232709486    0.81037584346613
8
 energy: -7.322854260633 gnorm: 0.065388805459 xtb: 6.4.1 (afa7bdf)
c         0.97179484155024   -0.02749756504402    0.13281524002411
c         2.47832730270558   -0.01830928072492    0.09980274255695
h         0.51416572796043    0.65797836922421   -0.58683384765284
h         0.49423856022189    0.28615753079022    1.06595886345442
h         0.52004167885546   -0.90007857075294   -0.34855585771826
h         2.92348411282171    0.95143966512841    0.34191663964028
h         2.97612136015212   -0.18679324020241   -0.85989042698328
h         2.90607845794995   -0.75652458470441    0.78483095803493
8
 energy: -7.326432047919 gnorm: 0.058062813400 xtb: 6.4.1 (afa7bdf)
c         0.90187871872596   -0.00736415912498    0.10229828837854
c         2.54447613031637   -0.00450063424630    0.07991163833671
h         0.49122666648682    0.69817681606855   -0.62624364585459
h         0.47513510882561    0.26385772799828    1.07262050111663
h         0.51382191394679   -0.97953516281654   -0.21628009618406
h         2.94530945696182    0.94121704035809    0.45693616059100
h         2.98967003671689   -0.20454998036664   -0.89936330368653
h         2.93027871199028   -0.76890452857174    0.76111617435193
8
 energy: -7.322242538735 gnorm: 0.060153876541 xtb: 6.4.1 (afa7bdf)
c         0.93023861997928    0.00571198945119    0.02796743373263
c         2.50801867636473   -0.00027329952484    0.10568924949838
h         0.51557965205359    0.80533426214800   -0.59320780700211
h         0.49309539129618    0.14135169757191    1.02180054313278
h         0.51287502052322   -0.99959867420487   -0.08318475450185
h         2.93283455427754    0.94265907452308    0.46291015526575
h         2.92757049026546   -0.25558384532745   -0.87205794278989
h         2.98780117823616   -0.73585749405016    0.75831564237411
8
 energy: -7.325806024110 gnorm: 0.048461128871 xtb: 6.4.1 (afa7bdf)
c         0.95993562689316   -0.00461682624021    0.06274349574098
c         2.48687227788957   -0.00482117333821    0.09640581937895
h         0.49482730279277    0.77349667124083   -0.54996369573884
h         0.46584655687308    0.14606011666681    1.02729988286308
h         0.48197293234818   -0.95288996902990   -0.20093512683764
h         2.94724038914311    0.93839177748916    0.40560999604396
h         2.95781480598798   -0.27975441249381   -0.85218341468529
h         2.99637952457159   -0.68232916603554    0.78820187758009
8
 energy: -7.317001485466 gnorm: 0.075097583613 xtb: 6.4.1 (afa7bdf)
c         0.89354260306449   -0.02674815125989    0.13298932714805
c         2.55582650971952   -0.00786617704620    0.08219490179061
h         0.45483391800946    0.66701536514713   -0.59049071954344
h         0.46398409562882    0.26893280527248    1.09488789409854
h         0.49183811281122   -0.92733304787137   -0.34111727126101
h         2.97264885760573    0.96147277157922    0.37174266386553
h         3.01446219247814   -0.21582278874766   -0.88919798236649
h         2.93862383696124   -0.73569352872233    0.80394979666825
8
 energy: -7.322841896325 gnorm: 0.052214369380 xtb: 6.4.1 (afa7bdf)
c         0.95160961483672   -0.01889865476826    0.10199540905089
c         2.49219792005653   -0.01636795250477    0.12246633881465
h         0.46034559289475    0.65082620951381   -0.61027194336860
h         0.48985657370791    0.29013333155988    1.04458755267952
h         0.48943711249805   -0.94437188428047   -0.25450511186719
h         2.96883283020900    0.94249795760048    0.34739314726160
h         2.98690314403328   -0.12943774591055   -0.84690392511311
h         2.95771542095993   -0.78911770422443    0.74161720445965
8
 energy: -7.320439288619 gnorm: 0.056052382676 xtb: 6.4.1 (afa7bdf)
c         0.93869774927573   -0.00439753040938    0.04425421497535
c         2.50430430167455   -0.00392559349501    0.12353478441147
h         0.45128268184852    0.74529282931995   -0.58629114727929
h         0.47175730933472    0.17967979482595    1.01650870999826
h         0.45274592874640   -0.97036110276026   -0.12296416613623
h         2.99142076946223    0.93772709566993    0.39409821332429
h         2.96938888974797   -0.20336587462373   -0.84657694040063
h         3.01891370889078   -0.74934534391479    0.73731260822173
8
 energy: -7.314321323918 gnorm: 0.071703581985 xtb: 6.4.1 (afa7bdf)
c         0.89773883858112   -0.00035909135782    0.07415870144404
c         2.55618724686394    0.01383363032956    0.05852121400289
h         0.47631722457613    0.77723234484818   -0.57000888512074
h         0.42538563575604    0.11800032197610    1.05399035631926
h         0.44891640575405   -0.96785248185490   -0.17020098229972
h         2.99112338698449    0.92842352318973    0.47271036928991
h         2.97905605587089   -0.32784761292801   -0.89102219890153
h         3.00190915576919   -0.65378018972468    0.80204010216417
8
 energy: -7.319649972327 gnorm: 0.070187275806 xtb: 6.4.1 (afa7bdf)
c         0.96956727927463   -0.01336790995267    0.11114273817542
c         2.48192425655562    0.00333486171831    0.06490638847574
h         0.47908301834782    0.69200753051410   -0.56640218621520
h         0.43168018754995    0.19003229707191    1.04200382391275
h         0.46207109084483   -0.91178466887502   -0.25285120836533
h         2.98858948324215    0.90682447364140    0.41731751782937
h         3.00643347650869   -0.26542454674128   -0.85696951871421
h         2.96216079133206   -0.66689332471003    0.78418629751264
8
 energy: -7.313791722720 gnorm: 0.064084958193 xtb: 6.4.1 (afa7bdf)
c         0.91955448400977   -0.01974838603583    0.09238027414369
c         2.52619003594780   -0.01870954416640    0.13867436195552
h         0.42991142595580    0.67049826291735   -0.60116548397463
h         0.45670508346594    0.27906163365732    1.03772654173677
h         0.43691425760859   -0.94618681660164   -0.23314534025205
h         3.00953666001403    0.94961969658467    0.29964418342904
h         3.01815079005278   -0.11473070661143   -0.83392592410289
h         2.99605630319333   -0.80814937146897    0.73298658736742
8
 energy: -7.317011392228 gnorm: 0.060645895585 xtb: 6.4.1 (afa7bdf)
c         0.90742611871348   -0.01221271313170    0.07496830351414
c         2.54270823960285   -0.01095599023680    0.13507678158581
h         0.42209229649009    0.69479107897574   -0.60458537485753
h         0.45535657358706    0.25382917354406    1.03520338170258
h         0.44358623506630   -0.96368313300301   -0.20207553046175
h         3.00880954641928    0.95833121264119    0.33614557510540
h         3.01665259686581   -0.15327845343698   -0.84079095153087
h         2.98759597456926   -0.80578589664752    0.74130850635325
8
 energy: -7.313050026780 gnorm: 0.084902753485 xtb: 6.4.1 (afa7bdf)
c         0.97545554840934   -0.00277760309343    0.09544099862169
c         2.47928549418118    0.01228167228678    0.05432009092653
h         0.47102885694642    0.71157066862618   -0.56217340562968
h         0.40645164930079    0.15107010876417    1.01726634857394
h         0.45777801308553   -0.92001985114303   -0.20099327561030
h         2.99006767206206    0.89090992831478    0.45967265206347
h         3.01427466300199   -0.30883807288486   -0.84449325270077
h         2.98065995155301   -0.63859481019405    0.77694032700658
8
 energy: -7.312444379307 gnorm: 0.066490578193 xtb: 6.4.1 (afa7bdf)
c         0.90503706736039   -0.00091741333026    0.08399993386097
c         2.54499161156722    0.00538110021630    0.05996951886044
h         0.47570549143643    0.76084253419175   -0.57371783624858
h         0.38342236943175    0.13800468658109    1.03574323922778
h         0.43508305650292   -0.95455066486649   -0.17469589327723
h         2.99027276670796    0.91928611800788    0.46456694914667
h         3.01206329277883   -0.31592793230949   -0.87587305617645
h         3.03786356794690   -0.64642209493953    0.78758644611993
8
 energy: -7.316834578069 gnorm: 0.058825925175 xtb: 6.4.1 (afa7bdf)
c         0.92166553579931   -0.00712928490014    0.05598358057508
c         2.52266306891450   -0.01196036860905    0.13730063008667
h         0.40791344400733    0.71297697155215   -0.58799022271552
h         0.45348074697766    0.23128664432714    1.01575304132847
h         0.45559792211077   -0.97135383627594   -0.16817860122494
h         3.00740190755481    0.94613029845014    0.34774623516574
h         3.01283652136079   -0.16346063184071   -0.82912291244499
h         3.01429552429154   -0.78362356178503    0.73732567528490
8
 energy: -7.311193580625 gnorm: 0.081520162702 xtb: 6.4.1 (afa7bdf)
c         0.96818869135496   -0.01734210874347    0.10129954064927
c         2.48181531744465   -0.01621544488576    0.12877663379069
h         0.40929299802390    0.62601115872003   -0.58494286863088
h         0.45579616965306    0.29896330161671    1.01486470823083
h         0.46664100290387   -0.92191356257840   -0.25562771302069
h         3.00030761552489    0.92842657127155    0.31854998005671
h         3.02464371843798   -0.12936231606134   -0.81447935245691
h         2.97780311685910   -0.78672673669849    0.72669382116898
8
 energy: -7.313988967056 gnorm: 0.068462810395 xtb: 6.4.1 (afa7bdf)
c         0.89504948281650   -0.01988118605817    0.12675326040477
c         2.55514807621564   -0.00468618114114    0.06948301424501
h         0.44749749302283    0.67987420202038   -0.58545183779433
h         0.40679279875219    0.23852428506512    1.07122591339239
h         0.43813329141254   -0.92002524143535   -0.29534266134685
h         2.99210261604348    0.94262060251335    0.39944870778409
h         3.04255555740511   -0.26202951412638   -0.87571809191743
h         3.00682169458508   -0.69056060649245    0.79250707004574
8
 energy: -7.314710119775 gnorm: 0.062073954591 xtb: 6.4.1 (afa7bdf)
c         0.93937404479064    0.00584405464057    0.05589222606708
c         2.50316384481174    0.00059085525389    0.08218824119025
h         0.45808159933433    0.77388102772923   -0.55702967943866
h         0.42641580447545    0.12123318315399    1.01545242274834
h         0.44508611672672   -0.94757530325050   -0.15355389657508
h         2.99770113390577    0.91176932536790    0.43202161160194
h         2.99509969359594   -0.31732824708353   -0.84199966460423
h         3.03451866983360   -0.64666629899038    0.78640181734181
8
 energy: -7.315146944225 gnorm: 0.070094316755 xtb: 6.4.1 (afa7bdf)
c         0.95064066561554    0.00232072953066    0.03186019945565
c         2.49088254738946   -0.00316162929925    0.11532686767049
h         0.44289455560330    0.75825016669677   -0.57473776763487
h         0.46067436820626    0.16858412316691    0.99595878369458
h         0.45350062416540   -0.96568972724161   -0.08217588858863
h         3.00547317076675    0.91476637927334    0.41499571531376
h         2.97182857700281   -0.23369224961688   -0.84004913395472
h         3.02557847528601   -0.72505804827144    0.73995666075119
8
 energy: -7.315838566422 gnorm: 0.064635914069 xtb: 6.4.1 (afa7bdf)
c         0.89223371438965   -0.02008420200885    0.11381692314112
c         2.55672462522299   -0.01492698183641    0.09867837574164
h         0.43883467003756    0.65507829720999   -0.61815398366829
h         0.44203217547449    0.31084091575637    1.05456329564473
h         0.43223796230139   -0.94524913883247   -0.24628091557480
h         3.00814264735299    0.93838873285810    0.38955236731552
h         3.02502054394329   -0.16594908172312   -0.87860767403575
h         2.99135643640400   -0.77334651684355    0.75677529896870
8
 energy: -7.312865064711 gnorm: 0.076026989843 xtb: 6.4.1 (afa7bdf)
c         0.95796363850559   -0.02507241726762    0.13432778081376
c         2.48662718024603   -0.01632289543400    0.09282343939449
h         0.45761745501056    0.63318196570884   -0.58229716258264
h         0.44941866706341    0.28305800598499    1.05282336839523
h         0.45433659920538   -0.87643150142089   -0.33337309585506
h         3.00120976042602    0.91952479883623    0.33071116197595
h         3.02972046563107   -0.20021884105350   -0.83907176622626
h         2.95843577307713   -0.72018169821901    0.78504878283999
8
 energy: -7.323727922992 gnorm: 0.045017385318 xtb: 6.4.1 (afa7bdf)
c         0.93225752278041    0.00048555670144    0.05936133420508
c         2.50796743179620   -0.00722419460666    0.11267814267333
h         0.45663250199739    0.77199176786546   -0.55362766731380
h         0.47478741033102    0.15589540956047    1.04107690386751
h         0.46057586747138   -0.95241825177567   -0.19887780711920
h         3.00405632042384    0.94380435355311    0.32863480247361
h         2.98373039516421   -0.27039464776954   -0.83684156872993
h         2.98406553542106   -0.71400894363513    0.79895977389984
8
 energy: -7.313154220164 gnorm: 0.073950759246 xtb: 6.4.1 (afa7bdf)
c         0.89520121412248    0.00350810789792    0.03754373962677
c         2.54916553970260    0.00078457497941    0.09649736023594
h         0.49140729972849    0.79868543994907   -0.59636478612982
h         0.43153089538368    0.14936962443504    1.01781454378973
h         0.44098326902985   -0.98543611088043   -0.07591166139486
h         2.99386295717750    0.93641954163009    0.44867379531353
h         2.96915289439217   -0.28129540469604   -0.87367699500150
h         3.02447420086619   -0.71599697277588    0.77288665824197
8
 energy: -7.320827031783 gnorm: 0.072272848846 xtb: 6.4.1 (afa7bdf)
c         0.97444535917563   -0.01045962711100    0.10787630158157
c         2.47791007405409    0.00045394372587    0.05855971685458
h         0.50510478702328    0.66598122070370   -0.61277871884974
h         0.43621509563896    0.26046082032653    1.02117079461822
h         0.46316135947018   -0.93777874671441   -0.16755895481213
h         2.96075048161111    0.88604874762305    0.48256872362103
h         3.00324090583015   -0.22847431301949   -0.87354331471926
h         2.95895140737443   -0.70155813601257    0.74629132208906
8
 energy: -7.321925793252 gnorm: 0.057854023851 xtb: 6.4.1 (afa7bdf)
c         0.91558486507904   -0.01685787212083    0.12560561582011
c         2.52844559787773   -0.01547262339694    0.09658264808724
h         0.46268187927056    0.66733368762060   -0.59824332650154
h         0.48247798369754    0.28532420055722    1.08388585025716
h         0.50160864904965   -0.93649242635798   -0.29876766764106
h         2.97232146548458    0.95815364979237    0.32510593097904
h         3.00879723729235   -0.19596769310984   -0.86979234752405
h         2.92453407698435   -0.76663746995998    0.78655503833099
8
 energy: -7.319425520036 gnorm: 0.065910883159 xtb: 6.4.1 (afa7bdf)
c         0.91056625810681   -0.00951078423577    0.07391999016356
c         2.53504821640039   -0.01850947336662    0.14852809893578
h         0.45257677386701    0.75709096060918   -0.55834886013122
h         0.49143245081519    0.20921163334896    1.06067422754512
h         0.47952097564595   -0.95652525320570   -0.26454756357757
h         2.96575565888253    0.98406570204338    0.22934136573068
h         2.97652373426834   -0.21446127539598   -0.83325546887211
h         2.98185541220130   -0.78061010117440    0.79409960426534
8
 energy: -7.326550645242 gnorm: 0.061279268475 xtb: 6.4.1 (afa7bdf)
c         0.97842331804536    0.00245563414348    0.07238501840019
c         2.47353888774967   -0.00495163758124    0.08669614429164
h         0.51134331514928    0.74889609124324   -0.57712194288676
h         0.47783693882364    0.18759768357164    1.02754583809364
h         0.49520467697675   -0.95599945592985   -0.13988882800881
h         2.93059076107097    0.93459082936175    0.41159667032121
h         2.94413813165974   -0.28048034837626   -0.86189072867861
h         2.96949095098438   -0.71247440259903    0.75799315058842
8
 energy: -7.318314638988 gnorm: 0.078818782298 xtb: 6.4.1 (afa7bdf)
c         0.90789789925345    0.00771666927311    0.10012827413442
c         2.54834418970954    0.01287555765777    0.03224190343950
h         0.52498436953083    0.71097934668594   -0.64552267252375
h         0.45904022988305    0.24467067528121    1.06944564438672
h         0.52051137941299   -0.99312065276193   -0.11306889231325
h         2.92650714778141    0.89186936576985    0.56286370741642
h         2.94694169758328   -0.29884882648305   -0.93788421862495
h         2.93776881386991   -0.70274617055955    0.76260523805792
8
 energy: -7.330693570450 gnorm: 0.032247630187 xtb: 6.4.1 (afa7bdf)
c         0.93009603111971    0.00194383118912    0.08420599761528
c         2.51409793442547   -0.01705514201036    0.10236287722998
h         0.49043561219102    0.72059625979003   -0.61395863912496
h         0.50287245396199    0.25867377253645    1.05825234685058
h         0.50717225374392   -0.96831109358504   -0.19317013204415
h         2.94575226569864    0.94606722073769    0.39092245014477
h         2.95116868650822   -0.23389667186446   -0.87699695960730
h         2.95452907307315   -0.76311930902313    0.77064818041763
8
 energy: -7.322533049453 gnorm: 0.067923339902 xtb: 6.4.1 (afa7bdf)
c         0.97200944945598   -0.01078606242541    0.08198666778258
c         2.47727425692564   -0.02526399908327    0.15556429482018
h         0.49893244176343    0.74844080879024   -0.54806823341084
h         0.56110706190513    0.23580952736180    1.06562603301273
h         0.51805767045698   -0.93513758600684   -0.28774122741203
h         2.91570188131263    0.97659570336657    0.19099186985192
h         2.91607474743105   -0.20903174818550   -0.82976829074082
h         2.92677365906124   -0.79379407558899    0.79157399741414
8
 energy: -7.327247831494 gnorm: 0.068272066310 xtb: 6.4.1 (afa7bdf)
c         0.90352519956953   -0.00518810442595    0.11212767503587
c         2.55107020296023   -0.01272419364376    0.09018878895297
h         0.51792431174711    0.72812763598308   -0.60254459885167
h         0.53314265721727    0.25712094812313    1.10772161026979
h         0.53154582630613   -0.95608483019809   -0.28109420248324
h         2.92520773519644    0.98170994436648    0.35156724918991
h         2.93275280323919   -0.27735364823850   -0.90051121348301
h         2.88012478332024   -0.76509939191937    0.81327336842847
8
 energy: -7.327054183204 gnorm: 0.050014364014 xtb: 6.4.1 (afa7bdf)
c         0.95417930363699    0.00798330134905    0.09421449613947
c         2.49504959621934    0.00185111489461    0.04984414938758
h         0.57160766745516    0.70909542917021   -0.65363386551806
h         0.49769490781706    0.25277135477838    1.05800769425434
h         0.51591287738363   -0.96846850265415   -0.13307619760310
h         2.91649428587401    0.88487785203126    0.53958374617033
h         2.91608983999987   -0.28860092116069   -0.91739905753691
h         2.91901245007594   -0.70456916847594    0.76985971121733
8
 energy: -7.330021756287 gnorm: 0.043899600819 xtb: 6.4.1 (afa7bdf)
c         0.95748302069614    0.00938257271853    0.04364048420310
c         2.48316684981580   -0.00944930899183    0.09831698182022
h         0.58859271996050    0.78520977477316   -0.63400882219882
h         0.56297788031601    0.20712147379697    1.04487053261562
h         0.54269530666765   -0.99684219218065   -0.06887438413496
h         2.89710405236500    0.93902761059779    0.45362575092041
h         2.85579650188109   -0.26454668097066   -0.89831198136464
h         2.91540568134889   -0.75513391033086    0.77235011317078
8
 energy: -7.326719079968 gnorm: 0.074509956618 xtb: 6.4.1 (afa7bdf)
c         0.90679608630522   -0.00463500439167    0.07212445069992
c         2.54463395068139   -0.01763382078877    0.13083192537747
h         0.54552540054961    0.78925418056366   -0.58849643788568
h         0.58167537332621    0.22142029998462    1.09212058128186
h         0.54926649203719   -0.98641528628658   -0.25264741078460
h         2.90749545835804    1.00473319375156    0.27328851958535
h         2.89042604534030   -0.25806387861287   -0.87902841009631
h         2.85581393980644   -0.78942657714164    0.84125391719593
8
 energy: -7.325979190752 gnorm: 0.061878599783 xtb: 6.4.1 (afa7bdf)
c         0.97646748374390   -0.02225770467529    0.14257490801868
c         2.47290212115223   -0.01868302368917    0.09226054307195
h         0.57088888371624    0.67698361616333   -0.59482867441589
h         0.55149592424140    0.28706791946252    1.10221722667677
h         0.56532610206982   -0.90388861802026   -0.35831066756444
h         2.89782625377438    0.96943932906436    0.29288566972796
h         2.92031613004368   -0.24726944893264   -0.87973004293273
h         2.83053624199195   -0.74476504100515    0.82853446012480
8
 energy: -7.334165741988 gnorm: 0.033636236204 xtb: 6.4.1 (afa7bdf)
c         0.94521807188700   -0.00372260627702    0.10853844455311
c         2.49641319826644   -0.01367414334125    0.07678807570270
h         0.62647598624011    0.70755858073087   -0.65936718436695
h         0.58632570815790    0.29732970546054    1.09735610219680
h         0.58482647419275   -0.99295440627314   -0.18934583393874
h         2.85063330252458    0.95580908616621    0.43986815336191
h         2.86550418744063   -0.22694351367100   -0.93092457121600
h         2.84585965100657   -0.77392682337024    0.78184097881659
8
 energy: -7.321687607430 gnorm: 0.081156559471 xtb: 6.4.1 (afa7bdf)
c         0.91506343959292    0.01096240632566    0.02856529459339
c         2.52472400787877   -0.00568569394120    0.09824994974140
h         0.60638001938219    0.81315545252486   -0.64848516276688
h         0.58948600228821    0.20559125220809    1.05487688425229
h         0.59021547170359   -1.03297928599715   -0.01451813931228
h         2.86507000020399    0.96499957431090    0.47125322026403
h         2.83453444063908   -0.26033380861825   -0.91977193639073
h         2.87947579216469   -0.79164179639858    0.77176364937201
8
 energy: -7.332199803037 gnorm: 0.060789080100 xtb: 6.4.1 (afa7bdf)
c         0.99619219941983    0.00634528386926    0.07301083259235
c         2.45617075239057   -0.00996985862529    0.08087737349895
h         0.60615595918520    0.79922576797453   -0.57228656838759
h         0.58517045981865    0.19009705502250    1.07025351478288
h         0.59692689121393   -0.98499174669716   -0.16158408232834
h         2.85232966557608    0.96635318415101    0.37591662924367
h         2.84357600811459   -0.32226779740934   -0.89358858289821
h         2.84324247711796   -0.72289732275803    0.81511605658395
8
 energy: -7.323358090932 gnorm: 0.072196317047 xtb: 6.4.1 (afa7bdf)
c         0.93581872800696   -0.01878495120245    0.14887693987686
c         2.50884836911915   -0.02564023956100    0.07581437684067
h         0.64593104648058    0.72718268768379   -0.59724226878876
h         0.61781628533035    0.28842901133997    1.14972187113365
h         0.63444502570372   -0.93426766563520   -0.36906315368082
h         2.80965824819058    1.00128701125256    0.30413557324053
h         2.84848369880932   -0.30193739669229   -0.92693407533999
h         2.79417537604633   -0.73266315180971    0.86060965477422
8
 energy: -7.328615281883 gnorm: 0.051569366852 xtb: 6.4.1 (afa7bdf)
c         0.94080042281868   -0.00207089186472    0.10881519123881
c         2.49937022139854   -0.03117552435538    0.11741826593252
h         0.59102911395628    0.71100698614056   -0.64376465598844
h         0.64427857303718    0.33296924229099    1.10732379302991
h         0.62819244449655   -0.98375093924364   -0.25966436923072
h         2.84227759459000    0.98773772237616    0.32095461639114
h         2.84871048417947   -0.20278139817155   -0.90518113273736
h         2.80952289739522   -0.83071744443487    0.79692878944649
8
 energy: -7.326332566295 gnorm: 0.082513879299 xtb: 6.4.1 (afa7bdf)
c         1.00186712096834    0.01072639221530    0.04838423194873
c         2.44535439849813   -0.01590941162226    0.11369534901743
h         0.61590330681007    0.76928296316795   -0.63923507468644
h         0.65307129600397    0.26230936715195    1.05448761369875
h         0.63048938332859   -1.01365236555684   -0.05123196064954
h         2.83051222667649    0.96374951229940    0.41222267849133
h         2.78440095011481   -0.22331721438368   -0.90572908305194
h         2.82846239460012   -0.82817360561604    0.73871668312424
8
 energy: -7.319806103687 gnorm: 0.076191639829 xtb: 6.4.1 (afa7bdf)
c         0.93833998841417    0.01268054893022    0.07856254952970
c         2.51760557847596   -0.00470357066933    0.05079321854226
h         0.70656386180918    0.81712077158348   -0.62596010175480
h         0.62860495769517    0.20667521162239    1.10988538287566
h         0.63576873977422   -1.01589001804583   -0.13981749993310
h         2.77930229048543    0.96518388372736    0.48441728751404
h         2.75697862182684   -0.36906468129792   -0.95276954033639
h         2.80942552854704   -0.71334182463499    0.83173459713930
8
 energy: -7.329501132658 gnorm: 0.045149658175 xtb: 6.4.1 (afa7bdf)
c         0.97215517147220    0.00163817846844    0.11453206795023
c         2.47174746187213   -0.01487501444226    0.05971574093465
h         0.65714595480231    0.76587428930684   -0.60234225027296
h         0.63530763541512    0.22602731310320    1.13108494814784
h         0.63708794951759   -0.95690432150604   -0.29304965213434
h         2.82574878227740    0.96723267397814    0.38735009775307
h         2.81697602079946   -0.36327022409128   -0.91836132186903
h         2.78053878089601   -0.68457800778522    0.86801169232612
8
 energy: -7.320624183487 gnorm: 0.080660442193 xtb: 6.4.1 (afa7bdf)
c         0.99839464881021   -0.00595799359841    0.09531325306676
c         2.44564131661432   -0.02857909972472    0.14083376432836
h         0.63954554952514    0.72666013323788   -0.63386055179421
h         0.70828865643938    0.30950857514096    1.10204850165368
h         0.65121217711442   -0.98320265059188   -0.25347585085902
h         2.81212553015197    0.99621068244006    0.25349229381965
h         2.78079792866888   -0.19280572947687   -0.88770713966074
h         2.76043492770748   -0.83803134633834    0.80633249933247
8
 energy: -7.320010827554 gnorm: 0.074359242948 xtb: 6.4.1 (afa7bdf)
c         0.94220356186807   -0.00500944955993    0.08072222250558
c         2.51203827027424   -0.02251955580677    0.13497609027000
h         0.68018808599091    0.72133858710708   -0.69449567971146