********************************************************************************
*                       GENERAL UTILITY LATTICE PROGRAM                        *
*                                 Julian Gale                                  *
*                       Curtin Institute for Computation                       *
*                    School of Molecular and Life Sciences                     *
*                    Curtin University, Western Australia                      *
********************************************************************************
* Version = 5.2.0 * Last modified =  28th July 2019                            *
********************************************************************************
*  optimise     - perform optimisation run                                     *
*  bulk_noopt   - do not optimise during bulk calculation                      *
*  property     - calculate properties for final geometry                      *
*  defect       - perform defect calculation after bulk run                    *
*  molecule     - molecule option activated, Coulomb subtract within molecule  *
********************************************************************************
* Vacancy of SO4 2- in BaSO4 : example of molecular defect calculation         *
********************************************************************************


  Job Started  at 15:23.29 28th July       2019                               

  Number of CPUs =     1

  Host name      = M-A0034725                              


  Total number of configurations input =      1

********************************************************************************
*  Input for Configuration =   1                                               *
********************************************************************************

  Formula = Ba4S4O16                                                    

  Number of irreducible atoms/shells =       8


  Total number atoms/shells =      40

  Dimensionality = 3               :  Bulk   


  Symmetry :

  Crystal family                   :  Orthorhombic
  Crystal class  (Groth - 1921)    :  Orthorhombic Bipyramidal             

  Space group (centrosymmetric)    :  P N M A         

  Patterson group                  :  P m m m  

  Cartesian lattice vectors (Angstroms) :

        8.849359    0.000000    0.000000
        0.000000    5.511278    0.000000
        0.000000    0.000000    7.122216

  Cell parameters (Angstroms/Degrees):

  a =       8.8494    alpha =  90.0000
  b =       5.5113    beta  =  90.0000
  c =       7.1222    gamma =  90.0000

  Initial cell volume =         347.359573 Angs**3

  Temperature of configuration =   0.00     K 

  Pressure of configuration =         0.000 GPa 

  Fractional coordinates of asymmetric unit :

--------------------------------------------------------------------------------
   No.  Atomic       x           y          z         Charge      Occupancy
        Label      (Frac)      (Frac)     (Frac)        (e)         (Frac)  
--------------------------------------------------------------------------------
      1 Ba    c    0.184032    0.250000    0.158717     2.00000    1.000000    
      2 S     c    0.442932    0.750000    0.185592     1.56000    1.000000    
      3 O     c    0.597632    0.750000    0.101962     0.56000    1.000000    
      4 O     c    0.318384    0.750000    0.040682     0.56000    1.000000    
      5 O     c    0.424643    0.971129    0.309411     0.56000    1.000000    
      6 O     s    0.598916    0.750000    0.101520    -1.45000    1.000000    
      7 O     s    0.319567    0.750000    0.039854    -1.45000    1.000000    
      8 O     s    0.425158    0.970631    0.308700    -1.45000    1.000000    
--------------------------------------------------------------------------------



  Molecule list generated from bond lengths :

  Total number of molecules =     4

--------------------------------------------------------------------------------
Molecule No./:  Atoms
Periodicity  :  
--------------------------------------------------------------------------------
     1  0    : S    c     5 O    c     9 O    c    13 O    c    17 O    c    24
             : O    s    25 O    s    29 O    s    33 O    s    40
     2  0    : S    c     6 O    c    10 O    c    14 O    c    18 O    c    23
             : O    s    26 O    s    30 O    s    34 O    s    39
     3  0    : S    c     7 O    c    11 O    c    15 O    c    19 O    c    22
             : O    s    27 O    s    31 O    s    35 O    s    38
     4  0    : S    c     8 O    c    12 O    c    16 O    c    20 O    c    21
             : O    s    28 O    s    32 O    s    36 O    s    37
--------------------------------------------------------------------------------


********************************************************************************
*  General input information                                                   *
********************************************************************************

  Species output for all configurations : 

--------------------------------------------------------------------------------
  Species    Type    Atomic    Atomic    Charge       Radii (Angs)     Library
                     Number     Mass       (e)     Cova   Ionic  VDW   Symbol
--------------------------------------------------------------------------------
    Ba       Core       56     137.33   2.000000   0.222  0.000  2.000          
    S        Core       16      32.07   1.560000   1.020  0.000  1.700          
    O        Core        8      16.00   0.560000   0.730  0.000  1.360          
    O        Shell       8       0.00  -1.450000   0.730  0.000  1.360          
--------------------------------------------------------------------------------


  Lattice summation method               =    Ewald          (3-D)
                                         =    Parry          (2-D)
                                         =    Saunders et al (1-D)
  Accuracy factor for lattice sums       =   12.000


  Analytic derivatives to be used

  Time limit = Infinity

  Maximum range for interatomic potentials =    100000.000000 Angstroms

  C6 terms to be calculated in real/reciprocal space by one-centre decomposition

  General interatomic potentials :

--------------------------------------------------------------------------------
Atom  Types   Potential      Parameter       Value         Units   Cutoffs(Ang)
  1     2                                                            Min /  Max 
--------------------------------------------------------------------------------
Ba   c O    s Buckingham    Buckingham A     4000.0000    eV        0.000  8.000
                            Buckingham rho  0.29130000    Ang       
                            Buckingham C     0.0000000    eV*Ang^6  
--------------------------------------------------------------------------------
O    c O    s Spring (c-s)  Spring k 2       15.000000    eV*Ang^-2 0.000  0.800
                            Spring k 4       0.0000000    eV*Ang^-4 
--------------------------------------------------------------------------------

  Intramolecular potentials :

--------------------------------------------------------------------------------
Atom  Types   Potential      Parameter       Value         Units   Cutoffs(Ang)
  1     2                                                            Min /  Max 
--------------------------------------------------------------------------------
S    c O    s Morse         Morse  De        4.7560000    eV        0.000  1.800
                            Morse  a0        2.1350000    Ang^-1    
                            Morse  r0        1.5270000    Ang       
--------------------------------------------------------------------------------

  Intermolecular potentials :

--------------------------------------------------------------------------------
Atom  Types   Potential      Parameter       Value         Units   Cutoffs(Ang)
  1     2                                                            Min /  Max 
--------------------------------------------------------------------------------
O    s O    s Buckingham    Buckingham A     150000.00    eV        2.700 16.000
                            Buckingham rho  0.19760000    Ang       
                            Buckingham C     28.000000    eV*Ang^6  
--------------------------------------------------------------------------------

  General Three-body potentials :

--------------------------------------------------------------------------------
  Atoms       Potential      Parameter       Value         Units   Cutoffs(Ang)
  1 / 2 / 3                                                          Min /  Max 
--------------------------------------------------------------------------------
S     core    Harmonic      Three-body cnst  7.7500000    eV*rad^-2 0.000  1.800
O     shel                  Three-body angl  109.47000    degrees   0.000  1.800
O     shel                  Three-body k4    0.0000000    eV*rad^-4 0.000  3.200
                            Three-body k3    0.0000000    eV*rad^-3 
--------------------------------------------------------------------------------

********************************************************************************
*  Output for configuration   1                                                *
********************************************************************************


  Components of energy : 

--------------------------------------------------------------------------------
  Interatomic potentials     =         -65.22459756 eV    
  Three-body potentials      =           0.07969369 eV    
  Monopole - monopole (real) =          68.70953266 eV    
  Monopole - monopole (recip)=        -178.96718781 eV    
  Monopole - monopole (total)=        -110.25765515 eV    
  Dispersion (real+recip)    =          -2.13170807 eV    
--------------------------------------------------------------------------------
  Total lattice energy       =        -177.53426709 eV    
--------------------------------------------------------------------------------
  Total lattice energy       =          -17129.3429 kJ/(mole unit cells)
--------------------------------------------------------------------------------

  Born effective charge tensors : 

-------------------------------------------------------------------------------
  Atom             x           y             z
-------------------------------------------------------------------------------
    1 Ba    x       1.9926      0.0000      0.0694
            y       0.0000      2.2723     -0.0000
            z       0.0497      0.0000      2.0557
-------------------------------------------------------------------------------
    2 S     x      -1.1861     -0.0000     -0.1059
            y       0.0000     -0.9757     -0.0000
            z      -0.0834      0.0000     -1.0192
-------------------------------------------------------------------------------
    3 O     x       0.1211     -0.0000     -0.3437
            y      -0.0000     -0.6598      0.0000
            z      -0.2860     -0.0000     -0.4181
-------------------------------------------------------------------------------
    4 O     x      -0.0945      0.0000      0.3951
            y      -0.0000     -0.6203      0.0000
            z       0.3677     -0.0000     -0.1456
-------------------------------------------------------------------------------
    5 O     x      -0.4166     -0.0473     -0.0520
            y      -0.0441     -0.0083      0.3717
            z      -0.0213      0.3762     -0.2364
-------------------------------------------------------------------------------




  Elastic Constant Matrix: (Units=GPa)

-------------------------------------------------------------------------------
  Indices      1         2         3         4         5         6    
-------------------------------------------------------------------------------
       1    103.1678   57.8535   46.8713    0.0000    0.0000   -0.0000
       2     57.8535  101.1154   35.2068    0.0000   -0.0000   -0.0000
       3     46.8713   35.2068  133.5610    0.0000    0.0000   -0.0000
       4      0.0000    0.0000    0.0000   12.3686    0.0000   -0.0000
       5      0.0000    0.0000    0.0000    0.0000   38.2853   -0.0000
       6     -0.0000    0.0000    0.0000   -0.0000    0.0000   27.8466
-------------------------------------------------------------------------------


  Elastic Compliance Matrix: (Units=1/GPa)

-------------------------------------------------------------------------------
  Indices      1         2         3         4         5         6    
-------------------------------------------------------------------------------
       1    0.015582 -0.007720 -0.003433  0.000000 -0.000000  0.000000
       2   -0.007720  0.014714 -0.001169 -0.000000  0.000000  0.000000
       3   -0.003433 -0.001169  0.009000 -0.000000  0.000000  0.000000
       4    0.000000 -0.000000 -0.000000  0.080850 -0.000000  0.000000
       5   -0.000000  0.000000  0.000000 -0.000000  0.026120  0.000000
       6    0.000000 -0.000000 -0.000000  0.000000 -0.000000  0.035911
-------------------------------------------------------------------------------

  Mechanical properties :

-------------------------------------------------------------------------------
  Convention :                    Reuss         Voigt         Hill
-------------------------------------------------------------------------------
  Bulk  Modulus (GPa)     =      68.25485      68.63415      68.44450
  Shear Modulus (GPa)     =      23.61775      28.89426      26.25600
-------------------------------------------------------------------------------
  Velocity S-wave (km/s)  =       2.30038       2.54441       2.42547
  Velocity P-wave (km/s)  =       4.72745       4.90001       4.81451
-------------------------------------------------------------------------------
  Compressibility (1/GPa) =    0.01465097
-------------------------------------------------------------------------------
  Stress axis :                     x             y             z
-------------------------------------------------------------------------------
  Youngs Moduli (GPa)     =      64.17762      67.96370     111.10709
-------------------------------------------------------------------------------
  Poissons Ratio (x)      =                     0.52466       0.38146
  Poissons Ratio (y)      =       0.49543                     0.12993
  Poissons Ratio (z)      =       0.22034       0.07948
-------------------------------------------------------------------------------


  Piezoelectric Strain Matrix: (Units=C/m**2)

-------------------------------------------------------------------------------
  Indices      1         2         3         4         5         6    
-------------------------------------------------------------------------------
       x     0.00000  -0.00000   0.00000  -0.00000   0.00000  -0.00000
       y     0.00000  -0.00000   0.00000  -0.00000  -0.00000   0.00000
       z     0.00000  -0.00000  -0.00000  -0.00000  -0.00000  -0.00000
-------------------------------------------------------------------------------


  Piezoelectric Stress Matrix: (Units=10**-11 C/N)

-------------------------------------------------------------------------------
  Indices      1         2         3         4         5         6    
-------------------------------------------------------------------------------
       x     0.00000  -0.00000  -0.00000  -0.00000   0.00000  -0.00000
       y     0.00000  -0.00000   0.00000  -0.00000  -0.00000   0.00000
       z     0.00000  -0.00000  -0.00000  -0.00000  -0.00000  -0.00000
-------------------------------------------------------------------------------


  Static dielectric constant tensor : 

-------------------------------------------------------------------------------
              x         y         z
-------------------------------------------------------------------------------
       x     3.88351  -0.00000  -0.00000
       y     0.00000  17.89641   0.00000
       z    -0.00000   0.00000   3.91546
--------------------------------------------------------------------------------

  High frequency dielectric constant tensor : 

-------------------------------------------------------------------------------
              x         y         z
-------------------------------------------------------------------------------
       x     1.72925   0.00000   0.00000
       y     0.00000   1.86361   0.00000
       z     0.00000   0.00000   1.78736
-------------------------------------------------------------------------------

  Static refractive indices : 

-------------------------------------------------------------------------------
    1 =    1.97066      2 =    1.97875      3 =    4.23042
-------------------------------------------------------------------------------

  High frequency refractive indices : 

-------------------------------------------------------------------------------
    1 =    1.31501      2 =    1.33692      3 =    1.36514
-------------------------------------------------------------------------------


  Time to end of properties =       0.0204 seconds

********************************************************************************
*  Defect calculation for configuration   1 :                                  *
********************************************************************************

  Total number of defects =      1

  Total charge on defect  =   2.00

  Defect centre is at the centroid of molecule no. =   1

  Region 1 radius =   4.6000      Number of ions =     47

  Number of symmetry inequivalent region 1 ions  =     28

  Region 2 radius =   8.6000      Number of ions =    256

  Number of symmetry inequivalent region 2a ions =    145

  Region 2a mode = 4 : screened electrostatics due to region 1 
                       neglect correction to region 1 forces from 2a
                       region 2a displacements based on defects only

  Region 2a ions will only interact with defects in region 1

  **** Warning - radius of region 1 + 2a is too small for region 2b energy ****
  **** to be valid. Ideally r2 should be greater than  17.52 Angstroms     ****

  Vacancies:

--------------------------------------------------------------------------------
    Specification type     Symbol/Number         x          y          z
--------------------------------------------------------------------------------
    Molecule                          1
--------------------------------------------------------------------------------


  Symmetry reduced region 1 (Relative to defect centre) :

--------------------------------------------------------------------------------
   No.   Atomic       x            y             z       Radius  Multiplicity   
         Label      (Angs)       (Angs)        (Angs)    (Angs)     
--------------------------------------------------------------------------------
     1  O     c     -3.0465 *     0.0000       1.4850 *  0.0000     1          
     2  O     c     -0.3498 *     2.7556 *    -2.0761 *  0.0000     2          
     3  Ba    c     -1.1143 *     0.0000       3.3416 *  0.0000     1          
     4  Ba    c     -2.2819 *     2.7556 *    -0.2195 *  0.0000     2          
     5  Ba    c      2.1428 *     2.7556 *     1.0808 *  0.0000     2          
     6  O     c      2.1214 *     2.7556 *    -1.6397 *  0.0000     2          
     7  O     c      3.3317 *     0.0000       1.9214 *  0.0000     1          
     8  Ba    c     -1.1143 *     0.0000      -3.7806 *  0.0000     1          
     9  S     c      1.0192 *     2.7556 *    -2.6717 *  0.0000     2          
    10  O     c      1.1811 *    -1.5369 *    -3.5536 *  0.0000     2          
    11  O     c      1.1811 *    -1.5369 *     3.5686 *  0.0000     2          
    12  Ba    c      3.3103 *     0.0000      -2.4803 *  0.0000     1          
    13  O     c     -2.3033 *    -2.7556 *     2.5009 *  0.0000     2          
    14  O     c     -0.1526 *     4.2926 *     0.8538 *  0.0000     2          
    15  O     c      4.2720 *    -1.2187 *     0.0075 *  0.0000     2          
    16  O     c     -3.2436 *     1.5369 *    -2.7073 *  0.0000     2          
    17  S     c     -4.4155 *     0.0000       0.8894 *  0.0000     1          
    18  S     c      4.4339 *     0.0000       0.8894 *  0.0000     1          
    19  O     s     -3.0351 *     0.0000       1.4881 *  0.0000     1          
    20  O     s     -0.3611 *     2.7556 *    -2.0730 *  0.0000     2          
    21  O     s      2.1109 *     2.7556 *    -1.6338 *  0.0000     2          
    22  O     s      3.3422 *     0.0000       1.9273 *  0.0000     1          
    23  O     s      1.1765 *    -1.5397 *    -3.5485 *  0.0000     2          
    24  O     s      1.1765 *    -1.5397 *     3.5737 *  0.0000     2          
    25  O     s     -2.3138 *    -2.7556 *     2.4950 *  0.0000     2          
    26  O     s     -0.1481 *     4.2953 *     0.8487 *  0.0000     2          
    27  O     s      4.2766 *    -1.2160 *     0.0126 *  0.0000     2          
    28  O     s     -3.2482 *     1.5397 *    -2.7124 *  0.0000     2          
--------------------------------------------------------------------------------

  Components of defect energy : 

--------------------------------------------------------------------------------
  Region 1 - region 1                   =     54.04845692 eV
  Region 1 - region 2a (unrelaxed)      =    -14.35998462 eV
  Three body defect energy              =     -0.01992342 eV
  Region 1 - 2a (relaxed - correction)  =     -3.27609083 eV
  Region 1 (Total)                      =     36.39245805 eV
  Region 2a                             =      1.63420800 eV
  Region 2b                             =     -2.66808722 eV
--------------------------------------------------------------------------------
  Total defect energy                   =     35.35857884 eV
--------------------------------------------------------------------------------

  Largest displacement in region 2 =   0.3915 Angstroms


  Number of variables =       75

  Maximum number of calculations  =        1000
  Maximum Hessian update interval =          10
  Maximum step size               =   1.0000000
  Maximum parameter tolerance     =   0.0000100
  Maximum function  tolerance     =   0.0000100
  Maximum gradient  tolerance     =   0.0010000

  Symmetry adapted optimisation

  Symmetry to be used for second derivatives

  Newton-Raphson optimiser to be used

  BFGS hessian update to be used

  Lower half triangular hessian to be used

  Start of defect optimisation :

  Cycle:      0 Defect Energy:  35.358579  Gnorm:     0.255370  CPU:    0.060
  ** Hessian calculated **
  Cycle:      1 Defect Energy:  32.609412  Gnorm:     0.143857  CPU:    0.119
  Cycle:      2 Defect Energy:  31.365325  Gnorm:     0.012073  CPU:    0.169
  Cycle:      3 Defect Energy:  31.360972  Gnorm:     0.008205  CPU:    0.180
  Cycle:      4 Defect Energy:  31.359459  Gnorm:     0.005634  CPU:    0.192
  Cycle:      5 Defect Energy:  31.358841  Gnorm:     0.003932  CPU:    0.204
  Cycle:      6 Defect Energy:  31.358673  Gnorm:     0.002733  CPU:    0.216
  Cycle:      7 Defect Energy:  31.358614  Gnorm:     0.001915  CPU:    0.228
  Cycle:      8 Defect Energy:  31.358646  Gnorm:     0.001336  CPU:    0.240
  Cycle:      9 Defect Energy:  31.358673  Gnorm:     0.000937  CPU:    0.253
  Cycle:     10 Defect Energy:  31.358714  Gnorm:     0.000654  CPU:    0.265
  ** Hessian calculated **
  Cycle:     11 Defect Energy:  31.358744  Gnorm:     0.000458  CPU:    0.290
  Cycle:     12 Defect Energy:  31.358767  Gnorm:     0.000321  CPU:    0.302
  Cycle:     13 Defect Energy:  31.358785  Gnorm:     0.000224  CPU:    0.316
  Cycle:     14 Defect Energy:  31.358797  Gnorm:     0.000157  CPU:    0.327


  **** Optimisation achieved ****


  Final defect energy  =       31.35880686
  Final defect Gnorm   =        0.00010998

  Components of defect energy : 

--------------------------------------------------------------------------------
  Region 1 - region 1                   =     47.45584576 eV
  Region 1 - region 2a (unrelaxed)      =    -12.14359585 eV
  Three body defect energy              =      0.45169253 eV
  Region 1 - 2a (relaxed - correction)  =     -4.17616918 eV
  Region 1 (Total)                      =     31.58777325 eV
  Region 2a                             =      2.44110231 eV
  Region 2b                             =     -2.67006871 eV
--------------------------------------------------------------------------------
  Total defect energy                   =     31.35880686 eV
--------------------------------------------------------------------------------

  Largest displacement in region 2 =   0.3915 Angstroms

  Final coordinates of region 1 :

--------------------------------------------------------------------------------
   No.  Atomic        x           y           z          Radius      Charge
        Label       (Angs)      (Angs)      (Angs)       (Angs)       (e) 
--------------------------------------------------------------------------------
     1  O     c     0.898875    4.133459    2.753253    0.000000    0.560000
     2  O     c     3.530751    6.802854   -0.696024    0.000000    0.560000
     3  O     c     3.530751    1.464063   -0.696024    0.000000    0.560000
     4  Ba    c     2.687482    4.133459    4.882994    0.000000    2.000000
     5  Ba    c     1.493871    7.117759    1.087757    0.000000    2.000000
     6  Ba    c     1.493871    1.149158    1.087757    0.000000    2.000000
     7  Ba    c     6.169216    7.124064    2.488383    0.000000    2.000000
     8  Ba    c     6.169216    1.142853    2.488383    0.000000    2.000000
     9  O     c     5.931266    6.794096   -0.220524    0.000000    0.560000
    10  O     c     5.931266    1.472821   -0.220524    0.000000    0.560000
    11  O     c     7.194958    4.133459    3.250386    0.000000    0.560000
    12  Ba    c     2.788510    4.133459   -2.617696    0.000000    2.000000
    13  S     c     4.890684    6.883533   -1.303125    0.000000    1.560000
    14  S     c     4.890684    1.383384   -1.303125    0.000000    1.560000
    15  O     c     5.065516    2.630082   -2.137577    0.000000    0.560000
    16  O     c     5.065516    5.636835   -2.137577    0.000000    0.560000
    17  O     c     5.030320    2.556810    4.862836    0.000000    0.560000
    18  O     c     5.030320    5.710107    4.862836    0.000000    0.560000
    19  Ba    c     7.337251    4.133459   -1.230339    0.000000    2.000000
    20  O     c     1.594825    1.425928    3.849905    0.000000    0.560000
    21  O     c     1.594825    6.840989    3.849905    0.000000    0.560000
    22  O     c     3.762204    8.400366    2.150598    0.000000    0.560000
    23  O     c     3.762204   -0.133449    2.150598    0.000000    0.560000
    24  O     c     8.111308    2.931824    1.360081    0.000000    0.560000
    25  O     c     8.111308    5.335093    1.360081    0.000000    0.560000
    26  O     c     0.715411    5.687491   -1.353574    0.000000    0.560000
    27  O     c     0.715411    2.579426   -1.353574    0.000000    0.560000
    28  S     c    -0.501968    4.133459    2.237722    0.000000    1.560000
    29  S     c     8.326538    4.133459    2.252405    0.000000    1.560000
    30  O     s     0.931575    4.133459    2.744975    0.000000   -1.450000
    31  O     s     3.521610    6.781093   -0.673153    0.000000   -1.450000
    32  O     s     3.521610    1.485824   -0.673153    0.000000   -1.450000
    33  O     s     5.911819    6.772764   -0.199468    0.000000   -1.450000
    34  O     s     5.911819    1.494153   -0.199468    0.000000   -1.450000
    35  O     s     7.187863    4.133459    3.242003    0.000000   -1.450000
    36  O     s     5.053535    2.640967   -2.112733    0.000000   -1.450000
    37  O     s     5.053535    5.625950   -2.112733    0.000000   -1.450000
    38  O     s     5.011365    2.556191    4.846474    0.000000   -1.450000
    39  O     s     5.011365    5.710726    4.846474    0.000000   -1.450000
    40  O     s     1.601209    1.437983    3.832185    0.000000   -1.450000
    41  O     s     1.601209    6.828934    3.832185    0.000000   -1.450000
    42  O     s     3.768466    8.378257    2.143282    0.000000   -1.450000
    43  O     s     3.768466   -0.111340    2.143282    0.000000   -1.450000
    44  O     s     8.092119    2.941441    1.360088    0.000000   -1.450000
    45  O     s     8.092119    5.325476    1.360088    0.000000   -1.450000
    46  O     s     0.728690    5.685539   -1.343564    0.000000   -1.450000
    47  O     s     0.728690    2.581378   -1.343564    0.000000   -1.450000
--------------------------------------------------------------------------------

  Final coordinates of symmetry reduced region 1 (relative to defect centre):

--------------------------------------------------------------------------------
   No.  Atomic        x           y           z          Charge
        Label       (Angs)      (Angs)      (Angs)         (e) 
--------------------------------------------------------------------------------
     1  O     c    -3.011593    0.000000    1.403331    0.560000
     2  O     c    -0.379716    2.669395   -2.045946    0.560000
     3  Ba    c    -1.222985    0.000000    3.533072    2.000000
     4  Ba    c    -2.416596    2.984300   -0.262165    2.000000
     5  Ba    c     2.258749    2.990606    1.138461    2.000000
     6  O     c     2.020798    2.660638   -1.570446    0.560000
     7  O     c     3.284491    0.000000    1.900464    0.560000
     8  Ba    c    -1.121957    0.000000   -3.967618    2.000000
     9  S     c     0.980217    2.750075   -2.653047    1.560000
    10  O     c     1.155048   -1.503376   -3.487499    0.560000
    11  O     c     1.119853   -1.576648    3.512914    0.560000
    12  Ba    c     3.426783    0.000000   -2.580261    2.000000
    13  O     c    -2.315642   -2.707531    2.499983    0.560000
    14  O     c    -0.148264    4.266908    0.800676    0.560000
    15  O     c     4.200841   -1.201634    0.010159    0.560000
    16  O     c    -3.195056    1.554032   -2.703496    0.560000
    17  S     c    -4.412436    0.000000    0.887800    1.560000
    18  S     c     4.416070    0.000000    0.902484    1.560000
    19  O     s    -2.978893    0.000000    1.395053   -1.450000
    20  O     s    -0.388858    2.647635   -2.023075   -1.450000
    21  O     s     2.001351    2.639306   -1.549390   -1.450000
    22  O     s     3.277395    0.000000    1.892081   -1.450000
    23  O     s     1.143067   -1.492491   -3.462655   -1.450000
    24  O     s     1.100897   -1.577268    3.496552   -1.450000
    25  O     s    -2.309259   -2.695475    2.482263   -1.450000
    26  O     s    -0.142001    4.244799    0.793360   -1.450000
    27  O     s     4.181652   -1.192018    0.010166   -1.450000
    28  O     s    -3.181778    1.552080   -2.693486   -1.450000
--------------------------------------------------------------------------------


  Final derivatives for region 1 :

--------------------------------------------------------------------------------
   No.  Atomic          x             y             z            Radius
        Label       (eV/Angs)     (eV/Angs)     (eV/Angs)       (eV/Angs)
--------------------------------------------------------------------------------
     1  O     c       0.000632      0.000000     -0.000505      0.000000
     2  O     c       0.000346     -0.001112      0.000482      0.000000
     3  Ba    c      -0.000011      0.000000     -0.000673      0.000000
     4  Ba    c      -0.000600     -0.000891      0.000187      0.000000
     5  Ba    c      -0.000154     -0.001712     -0.000878      0.000000
     6  O     c      -0.000626     -0.000704     -0.000064      0.000000
     7  O     c      -0.000579      0.000000     -0.000370      0.000000
     8  Ba    c       0.000172      0.000000      0.000811      0.000000
     9  S     c      -0.001279      0.000929     -0.001415      0.000000
    10  O     c      -0.000138      0.000194      0.000818      0.000000
    11  O     c      -0.000324      0.000346     -0.000963      0.000000
    12  Ba    c      -0.001111      0.000000      0.001017      0.000000
    13  O     c       0.000584      0.000691     -0.000272      0.000000
    14  O     c      -0.000065     -0.000571     -0.000053      0.000000
    15  O     c      -0.000703      0.000450     -0.000100      0.000000
    16  O     c       0.000596     -0.000430      0.000469      0.000000
    17  S     c       0.000538      0.000000     -0.000206      0.000000
    18  S     c      -0.000546      0.000000      0.000257      0.000000
    19  O     s      -0.000753      0.000000      0.001145      0.000000
    20  O     s      -0.001360      0.001863     -0.000761      0.000000
    21  O     s       0.003229      0.001121      0.001068      0.000000
    22  O     s       0.000940      0.000000      0.000908      0.000000
    23  O     s       0.000549      0.000369     -0.002246      0.000000
    24  O     s       0.001158      0.000623      0.001389      0.000000
    25  O     s      -0.001224     -0.001389      0.000795      0.000000
    26  O     s      -0.000103      0.001368      0.000533      0.000000
    27  O     s       0.001700     -0.001711     -0.000509      0.000000
    28  O     s      -0.001283      0.000521     -0.000817      0.000000
--------------------------------------------------------------------------------


  Time to end of optimisation  =        0.3402 seconds


  Peak dynamic memory used =       2.75 MB 


  Timing analysis for GULP :

--------------------------------------------------------------------------------
  Task / Subroutine                                          Time (Seconds)
--------------------------------------------------------------------------------
  Calculation of reciprocal space energy and derivatives          0.0020
  Calculation of real space energy and derivatives                0.0114
  Calculation of three-body energy and derivatives                0.0001
  Calculation of molecules and connectivity                       0.0003
  Calculation for region 1 energy and derivatives (2-b)           0.2209
  Calculation for region 1 energy and derivatives (3-b)           0.0022
  Calculation for region 2a energy                                0.0892
  Calculation for region 2b energy                                0.0047
  Calculation and manipulation of Hessian matrix                  0.0002
  Calculation of matrix inversion                                 0.0002
  Symmetry generation of equivalent positions                     0.0005
--------------------------------------------------------------------------------
  Total CPU time                                                  0.3402
--------------------------------------------------------------------------------



  **** GULP has completed with 1 warning - beware! ****

  Job Finished at 15:23.29 28th July       2019                               

